 vasp.6.2.1 16May21 (build Sep 27 2021 21:11:04) gamma-only                     
  
 executed on             LinuxIFC date 2023.05.04  08:03:20
 running   24 mpi-ranks, with    1 threads/rank
 distrk:  each k-point on   24 cores,    1 groups
 distr:  one band on NCORE=   8 cores,    3 groups


--------------------------------------------------------------------------------------------------------


 INCAR:
   GGA = PE
   ISTART = 0
   ISPIN = 2
   ENCUT = 370
   ENAUG = 740
   EDIFF = 1E-5
   IBRION = 2
   POTIM = 0.2
   NSW = 0
   EDIFFG = -1E-2
   ISMEAR = 0
   SIGMA = 0.01
   ISIF = 1
   LREAL = .FALSE.
   ISYM = 0
   PREC = Accurate
   NCORE = 8
   NELM = 60
   NWRITE = 2
   SYMPREC = 1.0e-8

 POTCAR:    PAW_PBE C 08Apr2002                   
 -----------------------------------------------------------------------------
|                                                                             |
|           W    W    AA    RRRRR   N    N  II  N    N   GGGG   !!!           |
|           W    W   A  A   R    R  NN   N  II  NN   N  G    G  !!!           |
|           W    W  A    A  R    R  N N  N  II  N N  N  G       !!!           |
|           W WW W  AAAAAA  RRRRR   N  N N  II  N  N N  G  GGG   !            |
|           WW  WW  A    A  R   R   N   NN  II  N   NN  G    G                |
|           W    W  A    A  R    R  N    N  II  N    N   GGGG   !!!           |
|                                                                             |
|     You use a magnetic or noncollinear calculation, but did not specify     |
|     the initial magnetic moment with the MAGMOM tag. Note that a            |
|     default of 1 will be used for all atoms. This ferromagnetic setup       |
|     may break the symmetry of the crystal, in particular it may rule        |
|     out finding an antiferromagnetic solution. Thence, we recommend         |
|     setting the initial magnetic moment manually or verifying carefully     |
|     that this magnetic setup is desired.                                    |
|                                                                             |
 -----------------------------------------------------------------------------

 POTCAR:    PAW_PBE C 08Apr2002                   
   SHA256 =  253f7b50bb8d59471dbedb8285d89021f4a42ed1a2c5d38a03a736e69125dd95 C/POTCAR              
   COPYR  = (c) Copyright 08Apr2002 Georg Kresse                                                    
   COPYR  = This file is part of the software VASP. Any use, copying, and all other rights are regul
   COPYR  = If you do not have a valid VASP license, you may not use, copy or distribute this file. 
   VRHFIN =C: s2p2                                                                                  
   LEXCH  = PE                                                                                      
   EATOM  =   147.1560 eV,   10.8157 Ry                                                             
                                                                                                    
   TITEL  = PAW_PBE C 08Apr2002                                                                     
   LULTRA =        F    use ultrasoft PP ?                                                          
   IUNSCR =        1    unscreen: 0-lin 1-nonlin 2-no                                               
   RPACOR =    1.200    partial core radius                                                         
   POMASS =   12.011; ZVAL   =    4.000    mass and valenz                                          
   RCORE  =    1.500    outmost cutoff radius                                                       
   RWIGS  =    1.630; RWIGS  =    0.863    wigner-seitz radius (au A)                               
   ENMAX  =  400.000; ENMIN  =  300.000 eV                                                          
   ICORE  =        2    local potential                                                             
   LCOR   =        T    correct aug charges                                                         
   LPAW   =        T    paw PP                                                                      
   EAUG   =  644.873                                                                                
   DEXC   =    0.000                                                                                
   RMAX   =    1.529    core radius for proj-oper                                                   
   RAUG   =    1.300    factor for augmentation sphere                                              
   RDEP   =    1.501    radius for radial grids                                                     
   RDEPT  =    1.300    core radius for aug-charge                                                  
                                                                                                    
   Atomic configuration                                                                             
    4 entries                                                                                       
     n  l   j            E        occ.                                                              
     1  0  0.50      -273.3789   2.0000                                                             
     2  0  0.50       -13.7508   2.0000                                                             
     2  1  0.50        -5.2854   2.0000                                                             
     3  2  1.50        -5.4423   0.0000                                                             
   Description                                                                                      
     l       E           TYP  RCUT    TYP  RCUT                                                     
     0    -13.7508458     23  1.200                                                                 
     0     -8.2022199     23  1.200                                                                 
     1     -5.2854383     23  1.500                                                                 
     1     34.0145650     23  1.500                                                                 
     2     -5.4423304      7  1.500                                                                 
  local pseudopotential read in
  partial core-charges read in
  partial kinetic energy density read in
  atomic valenz-charges read in
  non local Contribution for L=           0  read in
    real space projection operators read in
  non local Contribution for L=           0  read in
    real space projection operators read in
  non local Contribution for L=           1  read in
    real space projection operators read in
  non local Contribution for L=           1  read in
    real space projection operators read in
    PAW grid and wavefunctions read in
 
   number of l-projection  operators is LMAX  =           4
   number of lm-projection operators is LMMAX =           8
 
 -----------------------------------------------------------------------------
|                                                                             |
|               ----> ADVICE to this user running VASP <----                  |
|                                                                             |
|     You have a (more or less) 'large supercell' and for larger cells it     |
|     might be more efficient to use real-space projection operators.         |
|     Therefore, try LREAL= Auto in the INCAR file.                           |
|     Mind: For very accurate calculation, you might also keep the            |
|     reciprocal projection scheme (i.e. LREAL=.FALSE.).                      |
|                                                                             |
 -----------------------------------------------------------------------------

  PAW_PBE C 08Apr2002                   :
 energy of atom  1       EATOM= -147.1560
 kinetic energy error for atom=    0.0545 (will be added to EATOM!!)
 
 
 POSCAR: 3D\Atomistic
  positions in direct lattice
  velocities in cartesian coordinates
  No initial velocities read in
 exchange correlation table for  LEXCH =        8
   RHO(1)=    0.500       N(1)  =     2000
   RHO(2)=  100.500       N(2)  =     4000
 


--------------------------------------------------------------------------------------------------------


 ion  position               nearest neighbor table
   1  0.000  0.000  0.000-  72 1.53 165 1.53 199 1.53   6 1.53
   2  0.000  0.167  0.167-   7 1.53  21 1.54  24 1.54   6 1.54
   3  0.167  0.000  0.167-   5 1.53  55 1.54  56 1.54   6 1.54
   4  0.167  0.167  0.000-   8 1.53 149 1.54 151 1.54   6 1.54
   5  0.250  0.083  0.250-   3 1.53  81 1.53  76 1.54  10 1.54
   6  0.083  0.083  0.083-   1 1.53   2 1.54   3 1.54   4 1.54
   7  0.083  0.250  0.250-   2 1.53  97 1.53  76 1.54  27 1.54
   8  0.250  0.250  0.083-   4 1.53  33 1.53  27 1.54  10 1.54
   9  0.333  0.000  0.000-  56 1.53 149 1.53 207 1.54  14 1.54
  10  0.333  0.167  0.167-  15 1.54   5 1.54   8 1.54  14 1.54
  11  0.500  0.000  0.167-  13 1.53  63 1.53  64 1.54  14 1.54
  12  0.500  0.167  0.000-  16 1.53 159 1.53 157 1.54  14 1.54
  13  0.583  0.083  0.250-  11 1.53  84 1.54  89 1.54  18 1.54
  14  0.417  0.083  0.083-   9 1.54  11 1.54  12 1.54  10 1.54
  15  0.417  0.250  0.250-  35 1.53  84 1.53  10 1.54 105 1.54
  16  0.583  0.250  0.083-  12 1.53  35 1.54  41 1.54  18 1.54
  17  0.667  0.000  0.000- 215 1.53  22 1.53 157 1.54  64 1.54
  18  0.667  0.167  0.167-  23 1.53  22 1.54  13 1.54  16 1.54
  19  0.833  0.000  0.167-  71 1.53  22 1.54  21 1.54  72 1.54
  20  0.833  0.167  0.000- 167 1.53  22 1.54  24 1.54 165 1.54
  21  0.917  0.083  0.250-  73 1.53   2 1.54  19 1.54  92 1.54
  22  0.750  0.083  0.083-  17 1.53  19 1.54  20 1.54  18 1.54
  23  0.750  0.250  0.250-  18 1.53  43 1.53  92 1.53 113 1.53
  24  0.917  0.250  0.083-  25 1.53   2 1.54  20 1.54  43 1.54
  25  0.000  0.333  0.000-  24 1.53 151 1.53 189 1.54  30 1.54
  26  0.000  0.500  0.167-  31 1.53  45 1.53  48 1.54  30 1.54
  27  0.167  0.333  0.167-  29 1.54   7 1.54   8 1.54  30 1.54
  28  0.167  0.500  0.000-  32 1.53 173 1.53 175 1.54  30 1.54
  29  0.250  0.417  0.250-  34 1.53 100 1.53  27 1.54 105 1.54
  30  0.083  0.417  0.083-  25 1.54  26 1.54  28 1.54  27 1.54
  31  0.083  0.583  0.250-  26 1.53 100 1.54 121 1.54  51 1.54
  32  0.250  0.583  0.083-  28 1.53  34 1.54  57 1.54  51 1.54
  33  0.333  0.333  0.000-   8 1.53 159 1.54 173 1.54  38 1.54
  34  0.333  0.500  0.167-  29 1.53  39 1.54  32 1.54  38 1.54
  35  0.500  0.333  0.167-  15 1.53  37 1.54  16 1.54  38 1.54
  36  0.500  0.500  0.000-  40 1.53 181 1.53 183 1.53  38 1.53
  37  0.583  0.417  0.250- 108 1.53  35 1.54  42 1.54 113 1.54
  38  0.417  0.417  0.083-  36 1.53  33 1.54  35 1.54  34 1.54
  39  0.417  0.583  0.250- 108 1.53  34 1.54  59 1.54 129 1.54
  40  0.583  0.583  0.083-  36 1.53  42 1.54  59 1.54  65 1.54
  41  0.667  0.333  0.000- 167 1.53  46 1.54  16 1.54 181 1.54
  42  0.667  0.500  0.167-  47 1.53  46 1.54  37 1.54  40 1.54
  43  0.833  0.333  0.167-  23 1.53  46 1.54  45 1.54  24 1.54
  44  0.833  0.500  0.000- 191 1.53  46 1.53  48 1.54 189 1.54
  45  0.917  0.417  0.250-  26 1.53  97 1.54 116 1.54  43 1.54
  46  0.750  0.417  0.083-  44 1.53  41 1.54  42 1.54  43 1.54
  47  0.750  0.583  0.250-  42 1.53 116 1.53  67 1.54 137 1.54
  48  0.917  0.583  0.083-  26 1.54  44 1.54  49 1.54  67 1.54
  49  0.000  0.667  0.000- 213 1.53  54 1.53 175 1.54  48 1.54
  50  0.000  0.833  0.167-  69 1.53  54 1.54  55 1.54  72 1.54
  51  0.167  0.667  0.167-  53 1.53  54 1.54  31 1.54  32 1.54
  52  0.167  0.833  0.000- 197 1.53  54 1.54  56 1.54 199 1.54
  53  0.250  0.750  0.250-  51 1.53  58 1.53 124 1.53 129 1.53
  54  0.083  0.750  0.083-  49 1.53  50 1.54  52 1.54  51 1.54
  55  0.083  0.917  0.250-  73 1.53   3 1.54  50 1.54 124 1.54
  56  0.250  0.917  0.083-   9 1.53   3 1.54  52 1.54  58 1.54
  57  0.333  0.667  0.000- 197 1.53  62 1.54  32 1.54 183 1.54
  58  0.333  0.833  0.167-  53 1.53  62 1.54  63 1.54  56 1.54
  59  0.500  0.667  0.167-  61 1.53  62 1.54  39 1.54  40 1.54
  60  0.500  0.833  0.000- 205 1.53  62 1.53  64 1.54 207 1.54
  61  0.583  0.750  0.250-  59 1.53 132 1.53  66 1.54 137 1.54
  62  0.417  0.750  0.083-  60 1.53  57 1.54  59 1.54  58 1.54
  63  0.417  0.917  0.250-  11 1.53  81 1.54 132 1.54  58 1.54
  64  0.583  0.917  0.083-  11 1.54  17 1.54  60 1.54  66 1.54
  65  0.667  0.667  0.000-  70 1.53 191 1.54 205 1.54  40 1.54
  66  0.667  0.833  0.167-  70 1.54  61 1.54  71 1.54  64 1.54
  67  0.833  0.667  0.167-  70 1.54  69 1.54  47 1.54  48 1.54
  68  0.833  0.833  0.000-  70 1.53 213 1.54 215 1.54  72 1.54
  69  0.917  0.750  0.250-  50 1.53 121 1.53  67 1.54 140 1.54
  70  0.750  0.750  0.083-  65 1.53  68 1.53  67 1.54  66 1.54
  71  0.750  0.917  0.250-  19 1.53  89 1.53  66 1.54 140 1.54
  72  0.917  0.917  0.083-   1 1.53  19 1.54  50 1.54  68 1.54
  73  0.000  0.000  0.333-  21 1.53  55 1.53 144 1.54  78 1.54
  74  0.000  0.167  0.500-  79 1.53  96 1.53  93 1.54  78 1.54
  75  0.167  0.000  0.500-  77 1.53 128 1.53 127 1.54  78 1.54
  76  0.167  0.167  0.333-  80 1.54   7 1.54   5 1.54  78 1.54
  77  0.250  0.083  0.583-  75 1.53  82 1.54 153 1.54 148 1.54
  78  0.083  0.083  0.417-  73 1.54  74 1.54  75 1.54  76 1.54
  79  0.083  0.250  0.583-  74 1.53  99 1.54 169 1.54 148 1.54
  80  0.250  0.250  0.417-  82 1.53  99 1.53  76 1.54 105 1.54
  81  0.333  0.000  0.333-   5 1.53  63 1.54 128 1.54  86 1.54
  82  0.333  0.167  0.500-  80 1.53  87 1.54  77 1.54  86 1.54
  83  0.500  0.000  0.500-  85 1.53 135 1.53 136 1.53  86 1.53
  84  0.500  0.167  0.333-  15 1.53  88 1.54  13 1.54  86 1.54
  85  0.583  0.083  0.583-  83 1.53  90 1.54 156 1.54 161 1.54
  86  0.417  0.083  0.417-  83 1.53  81 1.54  82 1.54  84 1.54
  87  0.417  0.250  0.583- 107 1.53  82 1.54 156 1.54 177 1.54
  88  0.583  0.250  0.417- 107 1.53  84 1.54  90 1.54 113 1.54
  89  0.667  0.000  0.333-  71 1.53  94 1.54  13 1.54 136 1.54
  90  0.667  0.167  0.500-  95 1.53  94 1.54  88 1.54  85 1.54
  91  0.833  0.000  0.500- 143 1.53  94 1.53  93 1.54 144 1.54
  92  0.833  0.167  0.333-  23 1.53  94 1.54  96 1.54  21 1.54
  93  0.917  0.083  0.583-  74 1.54  91 1.54 145 1.54 164 1.54
  94  0.750  0.083  0.417-  91 1.53  89 1.54  90 1.54  92 1.54
  95  0.750  0.250  0.583-  90 1.53 115 1.53 164 1.54 185 1.54
  96  0.917  0.250  0.417-  74 1.53  97 1.54 115 1.54  92 1.54
  97  0.000  0.333  0.333-   7 1.53  45 1.54  96 1.54 102 1.54
  98  0.000  0.500  0.500- 103 1.53 117 1.53 120 1.53 102 1.53
  99  0.167  0.333  0.500-  80 1.53 101 1.54  79 1.54 102 1.54
 100  0.167  0.500  0.333-  29 1.53 104 1.54  31 1.54 102 1.54
 101  0.250  0.417  0.583- 106 1.53  99 1.54 172 1.54 177 1.54
 102  0.083  0.417  0.417-  98 1.53  97 1.54  99 1.54 100 1.54
 103  0.083  0.583  0.583-  98 1.53 123 1.54 172 1.54 193 1.54
 104  0.250  0.583  0.417- 106 1.53 100 1.54 123 1.54 129 1.54
 105  0.333  0.333  0.333-  15 1.54  29 1.54  80 1.54 110 1.54
 106  0.333  0.500  0.500- 104 1.53 101 1.53 111 1.54 110 1.54
 107  0.500  0.333  0.500-  88 1.53  87 1.53 109 1.54 110 1.54
 108  0.500  0.500  0.333-  37 1.53  39 1.53 112 1.54 110 1.54
 109  0.583  0.417  0.583- 107 1.54 180 1.54 114 1.54 185 1.54
 110  0.417  0.417  0.417- 106 1.54 107 1.54 108 1.54 105 1.54
 111  0.417  0.583  0.583- 106 1.54 180 1.54 131 1.54 201 1.54
 112  0.583  0.583  0.417- 108 1.54 114 1.54 131 1.54 137 1.54
 113  0.667  0.333  0.333-  23 1.53 118 1.54  88 1.54  37 1.54
 114  0.667  0.500  0.500- 119 1.53 118 1.53 112 1.54 109 1.54
 115  0.833  0.333  0.500-  95 1.53 118 1.54  96 1.54 117 1.54
 116  0.833  0.500  0.333-  47 1.53 118 1.54  45 1.54 120 1.54
 117  0.917  0.417  0.583-  98 1.53 115 1.54 169 1.54 188 1.54
 118  0.750  0.417  0.417- 114 1.53 115 1.54 116 1.54 113 1.54
 119  0.750  0.583  0.583- 114 1.53 139 1.54 188 1.54 209 1.54
 120  0.917  0.583  0.417-  98 1.53 116 1.54 121 1.54 139 1.54
 121  0.000  0.667  0.333-  69 1.53 126 1.54  31 1.54 120 1.54
 122  0.000  0.833  0.500- 141 1.53 126 1.53 127 1.54 144 1.54
 123  0.167  0.667  0.500- 125 1.53 126 1.54 104 1.54 103 1.54
 124  0.167  0.833  0.333-  53 1.53 126 1.54 128 1.54  55 1.54
 125  0.250  0.750  0.583- 123 1.53 130 1.53 196 1.54 201 1.54
 126  0.083  0.750  0.417- 122 1.53 121 1.54 123 1.54 124 1.54
 127  0.083  0.917  0.583-  75 1.54 122 1.54 145 1.54 196 1.54
 128  0.250  0.917  0.417-  75 1.53  81 1.54 130 1.54 124 1.54
 129  0.333  0.667  0.333-  53 1.53 134 1.54 104 1.54  39 1.54
 130  0.333  0.833  0.500- 125 1.53 134 1.54 128 1.54 135 1.54
 131  0.500  0.667  0.500- 133 1.53 134 1.53 112 1.54 111 1.54
 132  0.500  0.833  0.333-  61 1.53 134 1.54  63 1.54 136 1.54
 133  0.583  0.750  0.583- 131 1.53 138 1.54 204 1.54 209 1.54
 134  0.417  0.750  0.417- 131 1.53 130 1.54 132 1.54 129 1.54
 135  0.417  0.917  0.583-  83 1.53 130 1.54 153 1.54 204 1.54
 136  0.583  0.917  0.417-  83 1.53  89 1.54 132 1.54 138 1.54
 137  0.667  0.667  0.333- 142 1.54  61 1.54  47 1.54 112 1.54
 138  0.667  0.833  0.500- 142 1.53 133 1.54 143 1.54 136 1.54
 139  0.833  0.667  0.500- 142 1.53 141 1.54 119 1.54 120 1.54
 140  0.833  0.833  0.333- 142 1.54  71 1.54  69 1.54 144 1.54
 141  0.917  0.750  0.583- 122 1.53 139 1.54 193 1.54 212 1.54
 142  0.750  0.750  0.417- 138 1.53 139 1.53 137 1.54 140 1.54
 143  0.750  0.917  0.583-  91 1.53 138 1.54 161 1.54 212 1.54
 144  0.917  0.917  0.417-  73 1.54  91 1.54 122 1.54 140 1.54
 145  0.000  0.000  0.667- 216 1.53 150 1.53  93 1.54 127 1.54
 146  0.000  0.167  0.833- 168 1.53 150 1.54 151 1.54 165 1.54
 147  0.167  0.000  0.833- 200 1.53 150 1.54 149 1.54 199 1.54
 148  0.167  0.167  0.667- 152 1.53 150 1.54  77 1.54  79 1.54
 149  0.250  0.083  0.917-   9 1.53   4 1.54 147 1.54 154 1.54
 150  0.083  0.083  0.750- 145 1.53 146 1.54 147 1.54 148 1.54
 151  0.083  0.250  0.917-  25 1.53   4 1.54 146 1.54 171 1.54
 152  0.250  0.250  0.750- 148 1.53 154 1.53 171 1.53 177 1.53
 153  0.333  0.000  0.667- 200 1.53 158 1.54  77 1.54 135 1.54
 154  0.333  0.167  0.833- 152 1.53 158 1.54 159 1.54 149 1.54
 155  0.500  0.000  0.833- 208 1.53 158 1.53 157 1.54 207 1.54
 156  0.500  0.167  0.667- 160 1.53 158 1.54  87 1.54  85 1.54
 157  0.583  0.083  0.917-  12 1.54  17 1.54 155 1.54 162 1.54
 158  0.417  0.083  0.750- 155 1.53 153 1.54 156 1.54 154 1.54
 159  0.417  0.250  0.917-  12 1.53  33 1.54 179 1.54 154 1.54
 160  0.583  0.250  0.750- 156 1.53 179 1.53 162 1.54 185 1.54
 161  0.667  0.000  0.667- 166 1.53 143 1.54 208 1.54  85 1.54
 162  0.667  0.167  0.833- 166 1.54 167 1.54 160 1.54 157 1.54
 163  0.833  0.000  0.833- 166 1.53 215 1.54 216 1.54 165 1.54
 164  0.833  0.167  0.667- 166 1.54  95 1.54 168 1.54  93 1.54
 165  0.917  0.083  0.917-   1 1.53  20 1.54 146 1.54 163 1.54
 166  0.750  0.083  0.750- 161 1.53 163 1.53 162 1.54 164 1.54
 167  0.750  0.250  0.917-  20 1.53  41 1.53 162 1.54 187 1.54
 168  0.917  0.250  0.750- 146 1.53 169 1.53 164 1.54 187 1.54
 169  0.000  0.333  0.667- 168 1.53 174 1.54  79 1.54 117 1.54
 170  0.000  0.500  0.833- 192 1.53 174 1.53 175 1.54 189 1.54
 171  0.167  0.333  0.833- 152 1.53 174 1.54 173 1.54 151 1.54
 172  0.167  0.500  0.667- 176 1.53 174 1.54 101 1.54 103 1.54
 173  0.250  0.417  0.917-  28 1.53  33 1.54 178 1.54 171 1.54
 174  0.083  0.417  0.750- 170 1.53 169 1.54 172 1.54 171 1.54
 175  0.083  0.583  0.917-  28 1.54  49 1.54 170 1.54 195 1.54
 176  0.250  0.583  0.750- 172 1.53 178 1.53 195 1.54 201 1.54
 177  0.333  0.333  0.667- 152 1.53 182 1.54  87 1.54 101 1.54
 178  0.333  0.500  0.833- 176 1.53 182 1.54 173 1.54 183 1.54
 179  0.500  0.333  0.833- 160 1.53 182 1.54 159 1.54 181 1.54
 180  0.500  0.500  0.667- 184 1.53 182 1.53 109 1.54 111 1.54
 181  0.583  0.417  0.917-  36 1.53  41 1.54 179 1.54 186 1.54
 182  0.417  0.417  0.750- 180 1.53 179 1.54 178 1.54 177 1.54
 183  0.417  0.583  0.917-  36 1.53  57 1.54 178 1.54 203 1.54
 184  0.583  0.583  0.750- 180 1.53 186 1.54 203 1.54 209 1.54
 185  0.667  0.333  0.667- 190 1.54  95 1.54 160 1.54 109 1.54
 186  0.667  0.500  0.833- 190 1.53 184 1.54 191 1.54 181 1.54
 187  0.833  0.333  0.833- 190 1.54 167 1.54 168 1.54 189 1.54
 188  0.833  0.500  0.667- 190 1.53 119 1.54 192 1.54 117 1.54
 189  0.917  0.417  0.917-  25 1.54 170 1.54  44 1.54 187 1.54
 190  0.750  0.417  0.750- 186 1.53 188 1.53 187 1.54 185 1.54
 191  0.750  0.583  0.917-  44 1.53  65 1.54 186 1.54 211 1.54
 192  0.917  0.583  0.750- 170 1.53 188 1.54 193 1.54 211 1.54
 193  0.000  0.667  0.667- 198 1.53 192 1.54 141 1.54 103 1.54
 194  0.000  0.833  0.833- 198 1.53 213 1.54 216 1.54 199 1.54
 195  0.167  0.667  0.833- 198 1.54 197 1.54 176 1.54 175 1.54
 196  0.167  0.833  0.667- 198 1.54 125 1.54 200 1.54 127 1.54
 197  0.250  0.750  0.917-  52 1.53  57 1.53 195 1.54 202 1.54
 198  0.083  0.750  0.750- 193 1.53 194 1.53 195 1.54 196 1.54
 199  0.083  0.917  0.917-   1 1.53  52 1.54 147 1.54 194 1.54
 200  0.250  0.917  0.750- 147 1.53 153 1.53 196 1.54 202 1.54
 201  0.333  0.667  0.667- 206 1.54 125 1.54 176 1.54 111 1.54
 202  0.333  0.833  0.833- 206 1.54 197 1.54 200 1.54 207 1.54
 203  0.500  0.667  0.833- 206 1.53 205 1.54 184 1.54 183 1.54
 204  0.500  0.833  0.667- 206 1.53 133 1.54 208 1.54 135 1.54
 205  0.583  0.750  0.917-  60 1.53  65 1.54 203 1.54 210 1.54
 206  0.417  0.750  0.750- 203 1.53 204 1.53 201 1.54 202 1.54
 207  0.417  0.917  0.917-   9 1.54 155 1.54  60 1.54 202 1.54
 208  0.583  0.917  0.750- 155 1.53 161 1.54 204 1.54 210 1.54
 209  0.667  0.667  0.667- 214 1.53 133 1.54 184 1.54 119 1.54
 210  0.667  0.833  0.833- 214 1.53 208 1.54 205 1.54 215 1.54
 211  0.833  0.667  0.833- 214 1.53 192 1.54 213 1.54 191 1.54
 212  0.833  0.833  0.667- 214 1.53 143 1.54 141 1.54 216 1.54
 213  0.917  0.750  0.917-  49 1.53  68 1.54 194 1.54 211 1.54
 214  0.750  0.750  0.750- 209 1.53 210 1.53 211 1.53 212 1.53
 215  0.750  0.917  0.917-  17 1.53  68 1.54 163 1.54 210 1.54
 216  0.917  0.917  0.750- 145 1.53 163 1.54 194 1.54 212 1.54
 

IMPORTANT INFORMATION: All symmetrisations will be switched off!
NOSYMM: (Re-)initialisation of all symmetry stuff for point group C_1.


----------------------------------------------------------------------------------------

                                     Primitive cell                                     

  volume of cell :    1202.8529

  direct lattice vectors                    reciprocal lattice vectors
    10.635000229  0.000000000  0.000000000     0.094029147  0.000000000  0.000000000
     0.000000000 10.635000229  0.000000000     0.000000000  0.094029147  0.000000000
     0.000000000  0.000000000 10.635000229     0.000000000  0.000000000  0.094029147

  length of vectors
    10.635000229 10.635000229 10.635000229     0.094029147  0.094029147  0.094029147

  position of ions in fractional coordinates (direct lattice)
     0.000000000  0.000000000  0.000000000
     0.000000000  0.166669995  0.166669995
     0.166669995  0.000000000  0.166669995
     0.166669995  0.166669995  0.000000000
     0.250000000  0.083329998  0.250000000
     0.083329998  0.083329998  0.083329998
     0.083329998  0.250000000  0.250000000
     0.250000000  0.250000000  0.083329998
     0.333330005  0.000000000  0.000000000
     0.333330005  0.166669995  0.166669995
     0.500000000  0.000000000  0.166669995
     0.500000000  0.166669995  0.000000000
     0.583329976  0.083329998  0.250000000
     0.416669995  0.083329998  0.083329998
     0.416669995  0.250000000  0.250000000
     0.583329976  0.250000000  0.083329998
     0.666670024  0.000000000  0.000000000
     0.666670024  0.166669995  0.166669995
     0.833329976  0.000000000  0.166669995
     0.833329976  0.166669995  0.000000000
     0.916670024  0.083329998  0.250000000
     0.750000000  0.083329998  0.083329998
     0.750000000  0.250000000  0.250000000
     0.916670024  0.250000000  0.083329998
     0.000000000  0.333330005  0.000000000
     0.000000000  0.500000000  0.166669995
     0.166669995  0.333330005  0.166669995
     0.166669995  0.500000000  0.000000000
     0.250000000  0.416669995  0.250000000
     0.083329998  0.416669995  0.083329998
     0.083329998  0.583329976  0.250000000
     0.250000000  0.583329976  0.083329998
     0.333330005  0.333330005  0.000000000
     0.333330005  0.500000000  0.166669995
     0.500000000  0.333330005  0.166669995
     0.500000000  0.500000000  0.000000000
     0.583329976  0.416669995  0.250000000
     0.416669995  0.416669995  0.083329998
     0.416669995  0.583329976  0.250000000
     0.583329976  0.583329976  0.083329998
     0.666670024  0.333330005  0.000000000
     0.666670024  0.500000000  0.166669995
     0.833329976  0.333330005  0.166669995
     0.833329976  0.500000000  0.000000000
     0.916670024  0.416669995  0.250000000
     0.750000000  0.416669995  0.083329998
     0.750000000  0.583329976  0.250000000
     0.916670024  0.583329976  0.083329998
     0.000000000  0.666670024  0.000000000
     0.000000000  0.833329976  0.166669995
     0.166669995  0.666670024  0.166669995
     0.166669995  0.833329976  0.000000000
     0.250000000  0.750000000  0.250000000
     0.083329998  0.750000000  0.083329998
     0.083329998  0.916670024  0.250000000
     0.250000000  0.916670024  0.083329998
     0.333330005  0.666670024  0.000000000
     0.333330005  0.833329976  0.166669995
     0.500000000  0.666670024  0.166669995
     0.500000000  0.833329976  0.000000000
     0.583329976  0.750000000  0.250000000
     0.416669995  0.750000000  0.083329998
     0.416669995  0.916670024  0.250000000
     0.583329976  0.916670024  0.083329998
     0.666670024  0.666670024  0.000000000
     0.666670024  0.833329976  0.166669995
     0.833329976  0.666670024  0.166669995
     0.833329976  0.833329976  0.000000000
     0.916670024  0.750000000  0.250000000
     0.750000000  0.750000000  0.083329998
     0.750000000  0.916670024  0.250000000
     0.916670024  0.916670024  0.083329998
     0.000000000  0.000000000  0.333330005
     0.000000000  0.166669995  0.500000000
     0.166669995  0.000000000  0.500000000
     0.166669995  0.166669995  0.333330005
     0.250000000  0.083329998  0.583329976
     0.083329998  0.083329998  0.416669995
     0.083329998  0.250000000  0.583329976
     0.250000000  0.250000000  0.416669995
     0.333330005  0.000000000  0.333330005
     0.333330005  0.166669995  0.500000000
     0.500000000  0.000000000  0.500000000
     0.500000000  0.166669995  0.333330005
     0.583329976  0.083329998  0.583329976
     0.416669995  0.083329998  0.416669995
     0.416669995  0.250000000  0.583329976
     0.583329976  0.250000000  0.416669995
     0.666670024  0.000000000  0.333330005
     0.666670024  0.166669995  0.500000000
     0.833329976  0.000000000  0.500000000
     0.833329976  0.166669995  0.333330005
     0.916670024  0.083329998  0.583329976
     0.750000000  0.083329998  0.416669995
     0.750000000  0.250000000  0.583329976
     0.916670024  0.250000000  0.416669995
     0.000000000  0.333330005  0.333330005
     0.000000000  0.500000000  0.500000000
     0.166669995  0.333330005  0.500000000
     0.166669995  0.500000000  0.333330005
     0.250000000  0.416669995  0.583329976
     0.083329998  0.416669995  0.416669995
     0.083329998  0.583329976  0.583329976
     0.250000000  0.583329976  0.416669995
     0.333330005  0.333330005  0.333330005
     0.333330005  0.500000000  0.500000000
     0.500000000  0.333330005  0.500000000
     0.500000000  0.500000000  0.333330005
     0.583329976  0.416669995  0.583329976
     0.416669995  0.416669995  0.416669995
     0.416669995  0.583329976  0.583329976
     0.583329976  0.583329976  0.416669995
     0.666670024  0.333330005  0.333330005
     0.666670024  0.500000000  0.500000000
     0.833329976  0.333330005  0.500000000
     0.833329976  0.500000000  0.333330005
     0.916670024  0.416669995  0.583329976
     0.750000000  0.416669995  0.416669995
     0.750000000  0.583329976  0.583329976
     0.916670024  0.583329976  0.416669995
     0.000000000  0.666670024  0.333330005
     0.000000000  0.833329976  0.500000000
     0.166669995  0.666670024  0.500000000
     0.166669995  0.833329976  0.333330005
     0.250000000  0.750000000  0.583329976
     0.083329998  0.750000000  0.416669995
     0.083329998  0.916670024  0.583329976
     0.250000000  0.916670024  0.416669995
     0.333330005  0.666670024  0.333330005
     0.333330005  0.833329976  0.500000000
     0.500000000  0.666670024  0.500000000
     0.500000000  0.833329976  0.333330005
     0.583329976  0.750000000  0.583329976
     0.416669995  0.750000000  0.416669995
     0.416669995  0.916670024  0.583329976
     0.583329976  0.916670024  0.416669995
     0.666670024  0.666670024  0.333330005
     0.666670024  0.833329976  0.500000000
     0.833329976  0.666670024  0.500000000
     0.833329976  0.833329976  0.333330005
     0.916670024  0.750000000  0.583329976
     0.750000000  0.750000000  0.416669995
     0.750000000  0.916670024  0.583329976
     0.916670024  0.916670024  0.416669995
     0.000000000  0.000000000  0.666670024
     0.000000000  0.166669995  0.833329976
     0.166669995  0.000000000  0.833329976
     0.166669995  0.166669995  0.666670024
     0.250000000  0.083329998  0.916670024
     0.083329998  0.083329998  0.750000000
     0.083329998  0.250000000  0.916670024
     0.250000000  0.250000000  0.750000000
     0.333330005  0.000000000  0.666670024
     0.333330005  0.166669995  0.833329976
     0.500000000  0.000000000  0.833329976
     0.500000000  0.166669995  0.666670024
     0.583329976  0.083329998  0.916670024
     0.416669995  0.083329998  0.750000000
     0.416669995  0.250000000  0.916670024
     0.583329976  0.250000000  0.750000000
     0.666670024  0.000000000  0.666670024
     0.666670024  0.166669995  0.833329976
     0.833329976  0.000000000  0.833329976
     0.833329976  0.166669995  0.666670024
     0.916670024  0.083329998  0.916670024
     0.750000000  0.083329998  0.750000000
     0.750000000  0.250000000  0.916670024
     0.916670024  0.250000000  0.750000000
     0.000000000  0.333330005  0.666670024
     0.000000000  0.500000000  0.833329976
     0.166669995  0.333330005  0.833329976
     0.166669995  0.500000000  0.666670024
     0.250000000  0.416669995  0.916670024
     0.083329998  0.416669995  0.750000000
     0.083329998  0.583329976  0.916670024
     0.250000000  0.583329976  0.750000000
     0.333330005  0.333330005  0.666670024
     0.333330005  0.500000000  0.833329976
     0.500000000  0.333330005  0.833329976
     0.500000000  0.500000000  0.666670024
     0.583329976  0.416669995  0.916670024
     0.416669995  0.416669995  0.750000000
     0.416669995  0.583329976  0.916670024
     0.583329976  0.583329976  0.750000000
     0.666670024  0.333330005  0.666670024
     0.666670024  0.500000000  0.833329976
     0.833329976  0.333330005  0.833329976
     0.833329976  0.500000000  0.666670024
     0.916670024  0.416669995  0.916670024
     0.750000000  0.416669995  0.750000000
     0.750000000  0.583329976  0.916670024
     0.916670024  0.583329976  0.750000000
     0.000000000  0.666670024  0.666670024
     0.000000000  0.833329976  0.833329976
     0.166669995  0.666670024  0.833329976
     0.166669995  0.833329976  0.666670024
     0.250000000  0.750000000  0.916670024
     0.083329998  0.750000000  0.750000000
     0.083329998  0.916670024  0.916670024
     0.250000000  0.916670024  0.750000000
     0.333330005  0.666670024  0.666670024
     0.333330005  0.833329976  0.833329976
     0.500000000  0.666670024  0.833329976
     0.500000000  0.833329976  0.666670024
     0.583329976  0.750000000  0.916670024
     0.416669995  0.750000000  0.750000000
     0.416669995  0.916670024  0.916670024
     0.583329976  0.916670024  0.750000000
     0.666670024  0.666670024  0.666670024
     0.666670024  0.833329976  0.833329976
     0.833329976  0.666670024  0.833329976
     0.833329976  0.833329976  0.666670024
     0.916670024  0.750000000  0.916670024
     0.750000000  0.750000000  0.750000000
     0.750000000  0.916670024  0.916670024
     0.916670024  0.916670024  0.750000000

  ion indices of the primitive-cell ions
   primitive index   ion index
                 1           1
                 2           2
                 3           3
                 4           4
                 5           5
                 6           6
                 7           7
                 8           8
                 9           9
                10          10
                11          11
                12          12
                13          13
                14          14
                15          15
                16          16
                17          17
                18          18
                19          19
                20          20
                21          21
                22          22
                23          23
                24          24
                25          25
                26          26
                27          27
                28          28
                29          29
                30          30
                31          31
                32          32
                33          33
                34          34
                35          35
                36          36
                37          37
                38          38
                39          39
                40          40
                41          41
                42          42
                43          43
                44          44
                45          45
                46          46
                47          47
                48          48
                49          49
                50          50
                51          51
                52          52
                53          53
                54          54
                55          55
                56          56
                57          57
                58          58
                59          59
                60          60
                61          61
                62          62
                63          63
                64          64
                65          65
                66          66
                67          67
                68          68
                69          69
                70          70
                71          71
                72          72
                73          73
                74          74
                75          75
                76          76
                77          77
                78          78
                79          79
                80          80
                81          81
                82          82
                83          83
                84          84
                85          85
                86          86
                87          87
                88          88
                89          89
                90          90
                91          91
                92          92
                93          93
                94          94
                95          95
                96          96
                97          97
                98          98
                99          99
               100         100
               101         101
               102         102
               103         103
               104         104
               105         105
               106         106
               107         107
               108         108
               109         109
               110         110
               111         111
               112         112
               113         113
               114         114
               115         115
               116         116
               117         117
               118         118
               119         119
               120         120
               121         121
               122         122
               123         123
               124         124
               125         125
               126         126
               127         127
               128         128
               129         129
               130         130
               131         131
               132         132
               133         133
               134         134
               135         135
               136         136
               137         137
               138         138
               139         139
               140         140
               141         141
               142         142
               143         143
               144         144
               145         145
               146         146
               147         147
               148         148
               149         149
               150         150
               151         151
               152         152
               153         153
               154         154
               155         155
               156         156
               157         157
               158         158
               159         159
               160         160
               161         161
               162         162
               163         163
               164         164
               165         165
               166         166
               167         167
               168         168
               169         169
               170         170
               171         171
               172         172
               173         173
               174         174
               175         175
               176         176
               177         177
               178         178
               179         179
               180         180
               181         181
               182         182
               183         183
               184         184
               185         185
               186         186
               187         187
               188         188
               189         189
               190         190
               191         191
               192         192
               193         193
               194         194
               195         195
               196         196
               197         197
               198         198
               199         199
               200         200
               201         201
               202         202
               203         203
               204         204
               205         205
               206         206
               207         207
               208         208
               209         209
               210         210
               211         211
               212         212
               213         213
               214         214
               215         215
               216         216

----------------------------------------------------------------------------------------

 
 
 KPOINTS: 1 x 1 x 1 k-mesh (automatic generation o

Automatic generation of k-mesh.
 Grid dimensions read from file:
 generate k-points for:    1    1    1

 Generating k-lattice:

  Cartesian coordinates                     Fractional coordinates (reciprocal lattice)
     0.094029147  0.000000000  0.000000000     1.000000000  0.000000000  0.000000000
     0.000000000  0.094029147  0.000000000     0.000000000  1.000000000  0.000000000
     0.000000000  0.000000000  0.094029147     0.000000000  0.000000000  1.000000000

  Length of vectors
     0.094029147  0.094029147  0.094029147

  Shift w.r.t. Gamma in fractional coordinates (k-lattice)
     0.000000000  0.000000000  0.000000000

 
 Subroutine IBZKPT returns following result:
 ===========================================
 
 Found      1 irreducible k-points:
 
 Following reciprocal coordinates:
            Coordinates               Weight
  0.000000  0.000000  0.000000      1.000000
 
 Following cartesian coordinates:
            Coordinates               Weight
  0.000000  0.000000  0.000000      1.000000
 


--------------------------------------------------------------------------------------------------------




 Dimension of arrays:
   k-points           NKPTS =      1   k-points in BZ     NKDIM =      1   number of bands    NBANDS=    651
   number of dos      NEDOS =    301   number of ions     NIONS =    216
   non local maximal  LDIM  =      4   non local SUM 2l+1 LMDIM =      8
   total plane-waves  NPLWV = 343000
   max r-space proj   IRMAX =      1   max aug-charges    IRDMAX=   3564
   dimension x,y,z NGX =    70 NGY =   70 NGZ =   70
   dimension x,y,z NGXF=   140 NGYF=  140 NGZF=  140
   support grid    NGXF=   140 NGYF=  140 NGZF=  140
   ions per type =             216
   NGX,Y,Z   is equivalent  to a cutoff of  10.94, 10.94, 10.94 a.u.
   NGXF,Y,Z  is equivalent  to a cutoff of  21.88, 21.88, 21.88 a.u.

 SYSTEM =  unknown system                          
 POSCAR =  3D\Atomistic                            

 Startparameter for this run:
   NWRITE =      2    write-flag & timer
   PREC   = accura    normal or accurate (medium, high low for compatibility)
   ISTART =      0    job   : 0-new  1-cont  2-samecut
   ICHARG =      2    charge: 1-file 2-atom 10-const
   ISPIN  =      2    spin polarized calculation?
   LNONCOLLINEAR =      F non collinear calculations
   LSORBIT =      F    spin-orbit coupling
   INIWAV =      1    electr: 0-lowe 1-rand  2-diag
   LASPH  =      F    aspherical Exc in radial PAW
 Electronic Relaxation 1
   ENCUT  =  370.0 eV  27.19 Ry    5.21 a.u.  16.68 16.68 16.68*2*pi/ulx,y,z
   ENINI  =  370.0     initial cutoff
   ENAUG  =  740.0 eV  augmentation charge cutoff
   NELM   =     60;   NELMIN=  2; NELMDL= -5     # of ELM steps 
   EDIFF  = 0.1E-04   stopping-criterion for ELM
   LREAL  =      F    real-space projection
   NLSPLINE    = F    spline interpolate recip. space projectors
   LCOMPAT=      F    compatible to vasp.4.4
   GGA_COMPAT  = T    GGA compatible to vasp.4.4-vasp.4.6
   LMAXPAW     = -100 max onsite density
   LMAXMIX     =    2 max onsite mixed and CHGCAR
   VOSKOWN=      0    Vosko Wilk Nusair interpolation
   ROPT   =    0.00000
 Ionic relaxation
   EDIFFG = -.1E-01   stopping-criterion for IOM
   NSW    =      0    number of steps for IOM
   NBLOCK =      1;   KBLOCK =      1    inner block; outer block 
   IBRION =     -1    ionic relax: 0-MD 1-quasi-New 2-CG
   NFREE  =      1    steps in history (QN), initial steepest desc. (CG)
   ISIF   =      1    stress and relaxation
   IWAVPR =     10    prediction:  0-non 1-charg 2-wave 3-comb
   ISYM   =      0    0-nonsym 1-usesym 2-fastsym
   LCORR  =      T    Harris-Foulkes like correction to forces

   POTIM  = 0.2000    time-step for ionic-motion
   TEIN   =    0.0    initial temperature
   TEBEG  =    0.0;   TEEND  =   0.0 temperature during run
   SMASS  =  -3.00    Nose mass-parameter (am)
   estimated Nose-frequenzy (Omega)   =  0.10E-29 period in steps = 0.31E+47 mass=  -0.258E-26a.u.
   SCALEE = 1.0000    scale energy and forces
   NPACO  =    256;   APACO  = 16.0  distance and # of slots for P.C.
   PSTRESS=    0.0 pullay stress

  Mass of Ions in am
   POMASS =  12.01
  Ionic Valenz
   ZVAL   =   4.00
  Atomic Wigner-Seitz radii
   RWIGS  =  -1.00
  virtual crystal weights 
   VCA    =   1.00
   NELECT =     864.0000    total number of electrons
   NUPDOWN=      -1.0000    fix difference up-down

 DOS related values:
   EMIN   =  10.00;   EMAX   =-10.00  energy-range for DOS
   EFERMI =   0.00
   ISMEAR =     0;   SIGMA  =   0.01  broadening in eV -4-tet -1-fermi 0-gaus

 Electronic relaxation 2 (details)
   IALGO  =     38    algorithm
   LDIAG  =      T    sub-space diagonalisation (order eigenvalues)
   LSUBROT=      F    optimize rotation matrix (better conditioning)
   TURBO    =      0    0=normal 1=particle mesh
   IRESTART =      0    0=no restart 2=restart with 2 vectors
   NREBOOT  =      0    no. of reboots
   NMIN     =      0    reboot dimension
   EREF     =   0.00    reference energy to select bands
   IMIX   =      4    mixing-type and parameters
     AMIX     =   0.40;   BMIX     =  1.00
     AMIX_MAG =   1.60;   BMIX_MAG =  1.00
     AMIN     =   0.10
     WC   =   100.;   INIMIX=   1;  MIXPRE=   1;  MAXMIX= -45

 Intra band minimization:
   WEIMIN = 0.0000     energy-eigenvalue tresh-hold
   EBREAK =  0.38E-08  absolut break condition
   DEPER  =   0.30     relativ break condition  

   TIME   =   0.40     timestep for ELM

  volume/ion in A,a.u.               =       5.57        37.58
  Fermi-wavevector in a.u.,A,eV,Ry     =   1.466139  2.770602 29.246601  2.149565
  Thomas-Fermi vector in A             =   2.581912
 
 Write flags
   LWAVE        =      T    write WAVECAR
   LDOWNSAMPLE  =      F    k-point downsampling of WAVECAR
   LCHARG       =      T    write CHGCAR
   LVTOT        =      F    write LOCPOT, total local potential
   LVHAR        =      F    write LOCPOT, Hartree potential only
   LELF         =      F    write electronic localiz. function (ELF)
   LORBIT       =      0    0 simple, 1 ext, 2 COOP (PROOUT), +10 PAW based schemes


 Dipole corrections
   LMONO  =      F    monopole corrections only (constant potential shift)
   LDIPOL =      F    correct potential (dipole corrections)
   IDIPOL =      0    1-x, 2-y, 3-z, 4-all directions 
   EPSILON=  1.0000000 bulk dielectric constant

 Exchange correlation treatment:
   GGA     =    PE    GGA type
   LEXCH   =     8    internal setting for exchange type
   VOSKOWN=      0    Vosko Wilk Nusair interpolation
   LHFCALC =     F    Hartree Fock is set to
   LHFONE  =     F    Hartree Fock one center treatment
   AEXX    =    0.0000 exact exchange contribution

 Linear response parameters
   LEPSILON=     F    determine dielectric tensor
   LRPA    =     F    only Hartree local field effects (RPA)
   LNABLA  =     F    use nabla operator in PAW spheres
   LVEL    =     F    velocity operator in full k-point grid
   LINTERFAST=   F  fast interpolation
   KINTER  =     0    interpolate to denser k-point grid
   CSHIFT  =0.1000    complex shift for real part using Kramers Kronig
   OMEGAMAX=  -1.0    maximum frequency
   DEG_THRESHOLD= 0.2000000E-02 threshold for treating states as degnerate
   RTIME   =   -0.100 relaxation time in fs
  (WPLASMAI=    0.000 imaginary part of plasma frequency in eV, 0.658/RTIME)
   DFIELD  = 0.0000000 0.0000000 0.0000000 field for delta impulse in time
 
 Orbital magnetization related:
   ORBITALMAG=     F  switch on orbital magnetization
   LCHIMAG   =     F  perturbation theory with respect to B field
   DQ        =  0.001000  dq finite difference perturbation B field
   LLRAUG    =     F  two centre corrections for induced B field



--------------------------------------------------------------------------------------------------------


 Static calculation
 charge density and potential will be updated during run
 spin polarized calculation
 Variant of blocked Davidson
 Davidson routine will perform the subspace rotation
 perform sub-space diagonalisation
    after iterative eigenvector-optimisation
 modified Broyden-mixing scheme, WC =      100.0
 initial mixing is a Kerker type mixing with AMIX =  0.4000 and BMIX =      1.0000
 Hartree-type preconditioning will be used
 using additional bands          219
 reciprocal scheme for non local part
 use partial core corrections
 calculate Harris-corrections to forces 
   (improved forces if not selfconsistent)
 use gradient corrections 
 use of overlap-Matrix (Vanderbilt PP)
 Gauss-broadening in eV      SIGMA  =   0.01


--------------------------------------------------------------------------------------------------------


  energy-cutoff  :      370.00
  volume of cell :     1202.85
      direct lattice vectors                 reciprocal lattice vectors
    10.635000229  0.000000000  0.000000000     0.094029147  0.000000000  0.000000000
     0.000000000 10.635000229  0.000000000     0.000000000  0.094029147  0.000000000
     0.000000000  0.000000000 10.635000229     0.000000000  0.000000000  0.094029147

  length of vectors
    10.635000229 10.635000229 10.635000229     0.094029147  0.094029147  0.094029147


 
 k-points in units of 2pi/SCALE and weight: 1 x 1 x 1 k-mesh (automatic generation o
   0.00000000  0.00000000  0.00000000       1.000
 
 k-points in reciprocal lattice and weights: 1 x 1 x 1 k-mesh (automatic generation o
   0.00000000  0.00000000  0.00000000       1.000
 
 position of ions in fractional coordinates (direct lattice) 
   0.00000000  0.00000000  0.00000000
   0.00000000  0.16666999  0.16666999
   0.16666999  0.00000000  0.16666999
   0.16666999  0.16666999  0.00000000
   0.25000000  0.08333000  0.25000000
   0.08333000  0.08333000  0.08333000
   0.08333000  0.25000000  0.25000000
   0.25000000  0.25000000  0.08333000
   0.33333001  0.00000000  0.00000000
   0.33333001  0.16666999  0.16666999
   0.50000000  0.00000000  0.16666999
   0.50000000  0.16666999  0.00000000
   0.58332998  0.08333000  0.25000000
   0.41666999  0.08333000  0.08333000
   0.41666999  0.25000000  0.25000000
   0.58332998  0.25000000  0.08333000
   0.66667002  0.00000000  0.00000000
   0.66667002  0.16666999  0.16666999
   0.83332998  0.00000000  0.16666999
   0.83332998  0.16666999  0.00000000
   0.91667002  0.08333000  0.25000000
   0.75000000  0.08333000  0.08333000
   0.75000000  0.25000000  0.25000000
   0.91667002  0.25000000  0.08333000
   0.00000000  0.33333001  0.00000000
   0.00000000  0.50000000  0.16666999
   0.16666999  0.33333001  0.16666999
   0.16666999  0.50000000  0.00000000
   0.25000000  0.41666999  0.25000000
   0.08333000  0.41666999  0.08333000
   0.08333000  0.58332998  0.25000000
   0.25000000  0.58332998  0.08333000
   0.33333001  0.33333001  0.00000000
   0.33333001  0.50000000  0.16666999
   0.50000000  0.33333001  0.16666999
   0.50000000  0.50000000  0.00000000
   0.58332998  0.41666999  0.25000000
   0.41666999  0.41666999  0.08333000
   0.41666999  0.58332998  0.25000000
   0.58332998  0.58332998  0.08333000
   0.66667002  0.33333001  0.00000000
   0.66667002  0.50000000  0.16666999
   0.83332998  0.33333001  0.16666999
   0.83332998  0.50000000  0.00000000
   0.91667002  0.41666999  0.25000000
   0.75000000  0.41666999  0.08333000
   0.75000000  0.58332998  0.25000000
   0.91667002  0.58332998  0.08333000
   0.00000000  0.66667002  0.00000000
   0.00000000  0.83332998  0.16666999
   0.16666999  0.66667002  0.16666999
   0.16666999  0.83332998  0.00000000
   0.25000000  0.75000000  0.25000000
   0.08333000  0.75000000  0.08333000
   0.08333000  0.91667002  0.25000000
   0.25000000  0.91667002  0.08333000
   0.33333001  0.66667002  0.00000000
   0.33333001  0.83332998  0.16666999
   0.50000000  0.66667002  0.16666999
   0.50000000  0.83332998  0.00000000
   0.58332998  0.75000000  0.25000000
   0.41666999  0.75000000  0.08333000
   0.41666999  0.91667002  0.25000000
   0.58332998  0.91667002  0.08333000
   0.66667002  0.66667002  0.00000000
   0.66667002  0.83332998  0.16666999
   0.83332998  0.66667002  0.16666999
   0.83332998  0.83332998  0.00000000
   0.91667002  0.75000000  0.25000000
   0.75000000  0.75000000  0.08333000
   0.75000000  0.91667002  0.25000000
   0.91667002  0.91667002  0.08333000
   0.00000000  0.00000000  0.33333001
   0.00000000  0.16666999  0.50000000
   0.16666999  0.00000000  0.50000000
   0.16666999  0.16666999  0.33333001
   0.25000000  0.08333000  0.58332998
   0.08333000  0.08333000  0.41666999
   0.08333000  0.25000000  0.58332998
   0.25000000  0.25000000  0.41666999
   0.33333001  0.00000000  0.33333001
   0.33333001  0.16666999  0.50000000
   0.50000000  0.00000000  0.50000000
   0.50000000  0.16666999  0.33333001
   0.58332998  0.08333000  0.58332998
   0.41666999  0.08333000  0.41666999
   0.41666999  0.25000000  0.58332998
   0.58332998  0.25000000  0.41666999
   0.66667002  0.00000000  0.33333001
   0.66667002  0.16666999  0.50000000
   0.83332998  0.00000000  0.50000000
   0.83332998  0.16666999  0.33333001
   0.91667002  0.08333000  0.58332998
   0.75000000  0.08333000  0.41666999
   0.75000000  0.25000000  0.58332998
   0.91667002  0.25000000  0.41666999
   0.00000000  0.33333001  0.33333001
   0.00000000  0.50000000  0.50000000
   0.16666999  0.33333001  0.50000000
   0.16666999  0.50000000  0.33333001
   0.25000000  0.41666999  0.58332998
   0.08333000  0.41666999  0.41666999
   0.08333000  0.58332998  0.58332998
   0.25000000  0.58332998  0.41666999
   0.33333001  0.33333001  0.33333001
   0.33333001  0.50000000  0.50000000
   0.50000000  0.33333001  0.50000000
   0.50000000  0.50000000  0.33333001
   0.58332998  0.41666999  0.58332998
   0.41666999  0.41666999  0.41666999
   0.41666999  0.58332998  0.58332998
   0.58332998  0.58332998  0.41666999
   0.66667002  0.33333001  0.33333001
   0.66667002  0.50000000  0.50000000
   0.83332998  0.33333001  0.50000000
   0.83332998  0.50000000  0.33333001
   0.91667002  0.41666999  0.58332998
   0.75000000  0.41666999  0.41666999
   0.75000000  0.58332998  0.58332998
   0.91667002  0.58332998  0.41666999
   0.00000000  0.66667002  0.33333001
   0.00000000  0.83332998  0.50000000
   0.16666999  0.66667002  0.50000000
   0.16666999  0.83332998  0.33333001
   0.25000000  0.75000000  0.58332998
   0.08333000  0.75000000  0.41666999
   0.08333000  0.91667002  0.58332998
   0.25000000  0.91667002  0.41666999
   0.33333001  0.66667002  0.33333001
   0.33333001  0.83332998  0.50000000
   0.50000000  0.66667002  0.50000000
   0.50000000  0.83332998  0.33333001
   0.58332998  0.75000000  0.58332998
   0.41666999  0.75000000  0.41666999
   0.41666999  0.91667002  0.58332998
   0.58332998  0.91667002  0.41666999
   0.66667002  0.66667002  0.33333001
   0.66667002  0.83332998  0.50000000
   0.83332998  0.66667002  0.50000000
   0.83332998  0.83332998  0.33333001
   0.91667002  0.75000000  0.58332998
   0.75000000  0.75000000  0.41666999
   0.75000000  0.91667002  0.58332998
   0.91667002  0.91667002  0.41666999
   0.00000000  0.00000000  0.66667002
   0.00000000  0.16666999  0.83332998
   0.16666999  0.00000000  0.83332998
   0.16666999  0.16666999  0.66667002
   0.25000000  0.08333000  0.91667002
   0.08333000  0.08333000  0.75000000
   0.08333000  0.25000000  0.91667002
   0.25000000  0.25000000  0.75000000
   0.33333001  0.00000000  0.66667002
   0.33333001  0.16666999  0.83332998
   0.50000000  0.00000000  0.83332998
   0.50000000  0.16666999  0.66667002
   0.58332998  0.08333000  0.91667002
   0.41666999  0.08333000  0.75000000
   0.41666999  0.25000000  0.91667002
   0.58332998  0.25000000  0.75000000
   0.66667002  0.00000000  0.66667002
   0.66667002  0.16666999  0.83332998
   0.83332998  0.00000000  0.83332998
   0.83332998  0.16666999  0.66667002
   0.91667002  0.08333000  0.91667002
   0.75000000  0.08333000  0.75000000
   0.75000000  0.25000000  0.91667002
   0.91667002  0.25000000  0.75000000
   0.00000000  0.33333001  0.66667002
   0.00000000  0.50000000  0.83332998
   0.16666999  0.33333001  0.83332998
   0.16666999  0.50000000  0.66667002
   0.25000000  0.41666999  0.91667002
   0.08333000  0.41666999  0.75000000
   0.08333000  0.58332998  0.91667002
   0.25000000  0.58332998  0.75000000
   0.33333001  0.33333001  0.66667002
   0.33333001  0.50000000  0.83332998
   0.50000000  0.33333001  0.83332998
   0.50000000  0.50000000  0.66667002
   0.58332998  0.41666999  0.91667002
   0.41666999  0.41666999  0.75000000
   0.41666999  0.58332998  0.91667002
   0.58332998  0.58332998  0.75000000
   0.66667002  0.33333001  0.66667002
   0.66667002  0.50000000  0.83332998
   0.83332998  0.33333001  0.83332998
   0.83332998  0.50000000  0.66667002
   0.91667002  0.41666999  0.91667002
   0.75000000  0.41666999  0.75000000
   0.75000000  0.58332998  0.91667002
   0.91667002  0.58332998  0.75000000
   0.00000000  0.66667002  0.66667002
   0.00000000  0.83332998  0.83332998
   0.16666999  0.66667002  0.83332998
   0.16666999  0.83332998  0.66667002
   0.25000000  0.75000000  0.91667002
   0.08333000  0.75000000  0.75000000
   0.08333000  0.91667002  0.91667002
   0.25000000  0.91667002  0.75000000
   0.33333001  0.66667002  0.66667002
   0.33333001  0.83332998  0.83332998
   0.50000000  0.66667002  0.83332998
   0.50000000  0.83332998  0.66667002
   0.58332998  0.75000000  0.91667002
   0.41666999  0.75000000  0.75000000
   0.41666999  0.91667002  0.91667002
   0.58332998  0.91667002  0.75000000
   0.66667002  0.66667002  0.66667002
   0.66667002  0.83332998  0.83332998
   0.83332998  0.66667002  0.83332998
   0.83332998  0.83332998  0.66667002
   0.91667002  0.75000000  0.91667002
   0.75000000  0.75000000  0.75000000
   0.75000000  0.91667002  0.91667002
   0.91667002  0.91667002  0.75000000
 
 position of ions in cartesian coordinates  (Angst):
   0.00000000  0.00000000  0.00000000
   0.00000000  1.77253543  1.77253543
   1.77253543  0.00000000  1.77253543
   1.77253543  1.77253543  0.00000000
   2.65875006  0.88621455  2.65875006
   0.88621455  0.88621455  0.88621455
   0.88621455  2.65875006  2.65875006
   2.65875006  2.65875006  0.88621455
   3.54496468  0.00000000  0.00000000
   3.54496468  1.77253543  1.77253543
   5.31750011  0.00000000  1.77253543
   5.31750011  1.77253543  0.00000000
   6.20371443  0.88621455  2.65875006
   4.43128549  0.88621455  0.88621455
   4.43128549  2.65875006  2.65875006
   6.20371443  2.65875006  0.88621455
   7.09003586  0.00000000  0.00000000
   7.09003586  1.77253543  1.77253543
   8.86246449  0.00000000  1.77253543
   8.86246449  1.77253543  0.00000000
   9.74878592  0.88621455  2.65875006
   7.97625017  0.88621455  0.88621455
   7.97625017  2.65875006  2.65875006
   9.74878592  2.65875006  0.88621455
   0.00000000  3.54496468  0.00000000
   0.00000000  5.31750011  1.77253543
   1.77253543  3.54496468  1.77253543
   1.77253543  5.31750011  0.00000000
   2.65875006  4.43128549  2.65875006
   0.88621455  4.43128549  0.88621455
   0.88621455  6.20371443  2.65875006
   2.65875006  6.20371443  0.88621455
   3.54496468  3.54496468  0.00000000
   3.54496468  5.31750011  1.77253543
   5.31750011  3.54496468  1.77253543
   5.31750011  5.31750011  0.00000000
   6.20371443  4.43128549  2.65875006
   4.43128549  4.43128549  0.88621455
   4.43128549  6.20371443  2.65875006
   6.20371443  6.20371443  0.88621455
   7.09003586  3.54496468  0.00000000
   7.09003586  5.31750011  1.77253543
   8.86246449  3.54496468  1.77253543
   8.86246449  5.31750011  0.00000000
   9.74878592  4.43128549  2.65875006
   7.97625017  4.43128549  0.88621455
   7.97625017  6.20371443  2.65875006
   9.74878592  6.20371443  0.88621455
   0.00000000  7.09003586  0.00000000
   0.00000000  8.86246449  1.77253543
   1.77253543  7.09003586  1.77253543
   1.77253543  8.86246449  0.00000000
   2.65875006  7.97625017  2.65875006
   0.88621455  7.97625017  0.88621455
   0.88621455  9.74878592  2.65875006
   2.65875006  9.74878592  0.88621455
   3.54496468  7.09003586  0.00000000
   3.54496468  8.86246449  1.77253543
   5.31750011  7.09003586  1.77253543
   5.31750011  8.86246449  0.00000000
   6.20371443  7.97625017  2.65875006
   4.43128549  7.97625017  0.88621455
   4.43128549  9.74878592  2.65875006
   6.20371443  9.74878592  0.88621455
   7.09003586  7.09003586  0.00000000
   7.09003586  8.86246449  1.77253543
   8.86246449  7.09003586  1.77253543
   8.86246449  8.86246449  0.00000000
   9.74878592  7.97625017  2.65875006
   7.97625017  7.97625017  0.88621455
   7.97625017  9.74878592  2.65875006
   9.74878592  9.74878592  0.88621455
   0.00000000  0.00000000  3.54496468
   0.00000000  1.77253543  5.31750011
   1.77253543  0.00000000  5.31750011
   1.77253543  1.77253543  3.54496468
   2.65875006  0.88621455  6.20371443
   0.88621455  0.88621455  4.43128549
   0.88621455  2.65875006  6.20371443
   2.65875006  2.65875006  4.43128549
   3.54496468  0.00000000  3.54496468
   3.54496468  1.77253543  5.31750011
   5.31750011  0.00000000  5.31750011
   5.31750011  1.77253543  3.54496468
   6.20371443  0.88621455  6.20371443
   4.43128549  0.88621455  4.43128549
   4.43128549  2.65875006  6.20371443
   6.20371443  2.65875006  4.43128549
   7.09003586  0.00000000  3.54496468
   7.09003586  1.77253543  5.31750011
   8.86246449  0.00000000  5.31750011
   8.86246449  1.77253543  3.54496468
   9.74878592  0.88621455  6.20371443
   7.97625017  0.88621455  4.43128549
   7.97625017  2.65875006  6.20371443
   9.74878592  2.65875006  4.43128549
   0.00000000  3.54496468  3.54496468
   0.00000000  5.31750011  5.31750011
   1.77253543  3.54496468  5.31750011
   1.77253543  5.31750011  3.54496468
   2.65875006  4.43128549  6.20371443
   0.88621455  4.43128549  4.43128549
   0.88621455  6.20371443  6.20371443
   2.65875006  6.20371443  4.43128549
   3.54496468  3.54496468  3.54496468
   3.54496468  5.31750011  5.31750011
   5.31750011  3.54496468  5.31750011
   5.31750011  5.31750011  3.54496468
   6.20371443  4.43128549  6.20371443
   4.43128549  4.43128549  4.43128549
   4.43128549  6.20371443  6.20371443
   6.20371443  6.20371443  4.43128549
   7.09003586  3.54496468  3.54496468
   7.09003586  5.31750011  5.31750011
   8.86246449  3.54496468  5.31750011
   8.86246449  5.31750011  3.54496468
   9.74878592  4.43128549  6.20371443
   7.97625017  4.43128549  4.43128549
   7.97625017  6.20371443  6.20371443
   9.74878592  6.20371443  4.43128549
   0.00000000  7.09003586  3.54496468
   0.00000000  8.86246449  5.31750011
   1.77253543  7.09003586  5.31750011
   1.77253543  8.86246449  3.54496468
   2.65875006  7.97625017  6.20371443
   0.88621455  7.97625017  4.43128549
   0.88621455  9.74878592  6.20371443
   2.65875006  9.74878592  4.43128549
   3.54496468  7.09003586  3.54496468
   3.54496468  8.86246449  5.31750011
   5.31750011  7.09003586  5.31750011
   5.31750011  8.86246449  3.54496468
   6.20371443  7.97625017  6.20371443
   4.43128549  7.97625017  4.43128549
   4.43128549  9.74878592  6.20371443
   6.20371443  9.74878592  4.43128549
   7.09003586  7.09003586  3.54496468
   7.09003586  8.86246449  5.31750011
   8.86246449  7.09003586  5.31750011
   8.86246449  8.86246449  3.54496468
   9.74878592  7.97625017  6.20371443
   7.97625017  7.97625017  4.43128549
   7.97625017  9.74878592  6.20371443
   9.74878592  9.74878592  4.43128549
   0.00000000  0.00000000  7.09003586
   0.00000000  1.77253543  8.86246449
   1.77253543  0.00000000  8.86246449
   1.77253543  1.77253543  7.09003586
   2.65875006  0.88621455  9.74878592
   0.88621455  0.88621455  7.97625017
   0.88621455  2.65875006  9.74878592
   2.65875006  2.65875006  7.97625017
   3.54496468  0.00000000  7.09003586
   3.54496468  1.77253543  8.86246449
   5.31750011  0.00000000  8.86246449
   5.31750011  1.77253543  7.09003586
   6.20371443  0.88621455  9.74878592
   4.43128549  0.88621455  7.97625017
   4.43128549  2.65875006  9.74878592
   6.20371443  2.65875006  7.97625017
   7.09003586  0.00000000  7.09003586
   7.09003586  1.77253543  8.86246449
   8.86246449  0.00000000  8.86246449
   8.86246449  1.77253543  7.09003586
   9.74878592  0.88621455  9.74878592
   7.97625017  0.88621455  7.97625017
   7.97625017  2.65875006  9.74878592
   9.74878592  2.65875006  7.97625017
   0.00000000  3.54496468  7.09003586
   0.00000000  5.31750011  8.86246449
   1.77253543  3.54496468  8.86246449
   1.77253543  5.31750011  7.09003586
   2.65875006  4.43128549  9.74878592
   0.88621455  4.43128549  7.97625017
   0.88621455  6.20371443  9.74878592
   2.65875006  6.20371443  7.97625017
   3.54496468  3.54496468  7.09003586
   3.54496468  5.31750011  8.86246449
   5.31750011  3.54496468  8.86246449
   5.31750011  5.31750011  7.09003586
   6.20371443  4.43128549  9.74878592
   4.43128549  4.43128549  7.97625017
   4.43128549  6.20371443  9.74878592
   6.20371443  6.20371443  7.97625017
   7.09003586  3.54496468  7.09003586
   7.09003586  5.31750011  8.86246449
   8.86246449  3.54496468  8.86246449
   8.86246449  5.31750011  7.09003586
   9.74878592  4.43128549  9.74878592
   7.97625017  4.43128549  7.97625017
   7.97625017  6.20371443  9.74878592
   9.74878592  6.20371443  7.97625017
   0.00000000  7.09003586  7.09003586
   0.00000000  8.86246449  8.86246449
   1.77253543  7.09003586  8.86246449
   1.77253543  8.86246449  7.09003586
   2.65875006  7.97625017  9.74878592
   0.88621455  7.97625017  7.97625017
   0.88621455  9.74878592  9.74878592
   2.65875006  9.74878592  7.97625017
   3.54496468  7.09003586  7.09003586
   3.54496468  8.86246449  8.86246449
   5.31750011  7.09003586  8.86246449
   5.31750011  8.86246449  7.09003586
   6.20371443  7.97625017  9.74878592
   4.43128549  7.97625017  7.97625017
   4.43128549  9.74878592  9.74878592
   6.20371443  9.74878592  7.97625017
   7.09003586  7.09003586  7.09003586
   7.09003586  8.86246449  8.86246449
   8.86246449  7.09003586  8.86246449
   8.86246449  8.86246449  7.09003586
   9.74878592  7.97625017  9.74878592
   7.97625017  7.97625017  7.97625017
   7.97625017  9.74878592  9.74878592
   9.74878592  9.74878592  7.97625017
 


--------------------------------------------------------------------------------------------------------


 use parallel FFT for orbitals z direction half grid
 k-point   1 :   0.0000 0.0000 0.0000  plane waves:    9775

 maximum and minimum number of plane-waves per node :      1225     1219

 maximum number of plane-waves:      9775
 maximum index in each direction: 
   IXMAX=   16   IYMAX=   16   IZMAX=   16
   IXMIN=  -16   IYMIN=  -16   IZMIN=    0


 parallel 3D FFT for wavefunctions:
    minimum data exchange during FFTs selected (reduces bandwidth)
 parallel 3D FFT for charge:
    minimum data exchange during FFTs selected (reduces bandwidth)


 total amount of memory used by VASP MPI-rank0    60647. kBytes
=======================================================================

   base      :      30000. kBytes
   nonl-proj :       4308. kBytes
   fftplans  :       4899. kBytes
   grid      :      12109. kBytes
   one-center:         82. kBytes
   wavefun   :       9249. kBytes
 
     INWAV:  cpu time    0.0000: real time    0.0000
 Broyden mixing: mesh for mixing (old mesh)
   NGX = 33   NGY = 33   NGZ = 33
  (NGX  =140   NGY  =140   NGZ  =140)
  gives a total of  35937 points

 initial charge density was supplied:
 charge density of overlapping atoms calculated
 number of electron     864.0000000 magnetization     216.0000000
 keeping initial charge density in first step


--------------------------------------------------------------------------------------------------------


 Maximum index for augmentation-charges          268 (set IRDMAX)


--------------------------------------------------------------------------------------------------------


 First call to EWALD:  gamma=   0.167
 Maximum number of real-space cells 3x 3x 3
 Maximum number of reciprocal cells 3x 3x 3

    FEWALD:  cpu time    0.0106: real time    0.0109


--------------------------------------- Iteration      1(   1)  ---------------------------------------


    POTLOK:  cpu time    0.1537: real time    0.1671
    SETDIJ:  cpu time    0.0330: real time    0.0330
     EDDAV:  cpu time    6.6265: real time    7.1831
       DOS:  cpu time    0.0019: real time    0.0020
    --------------------------------------------
      LOOP:  cpu time    6.8152: real time    7.3852

 eigenvalue-minimisations  :  2604
 total energy-change (2. order) : 0.4925023E+04  (-0.4228054E+05)
 number of electron     864.0000000 magnetization     216.0000000
 augmentation part      864.0000000 magnetization     216.0000000

 Free energy of the ion-electron system (eV)
  ---------------------------------------------------
  alpha Z        PSCENC =      3186.28924586
  Ewald energy   TEWEN  =    -37810.67409911
  -Hartree energ DENC   =     -1859.05564035
  -exchange      EXHF   =         0.00000000
  -V(xc)+E(xc)   XCENC  =      3010.07026380
  PAW double counting   =     23413.06034368   -23534.13957697
  entropy T*S    EENTRO =        -0.00349169
  eigenvalues    EBANDS =      6745.55348552
  atomic energy  EATOM  =     31773.92217076
  Solvation  Ediel_sol  =         0.00000000
  ---------------------------------------------------
  free energy    TOTEN  =      4925.02270150 eV

  energy without entropy =     4925.02619320  energy(sigma->0) =     4925.02444735


--------------------------------------------------------------------------------------------------------




--------------------------------------- Iteration      1(   2)  ---------------------------------------


     EDDAV:  cpu time    7.9680: real time    8.5592
       DOS:  cpu time    0.0044: real time    0.0044
    --------------------------------------------
      LOOP:  cpu time    7.9725: real time    8.5636

 eigenvalue-minimisations  :  3339
 total energy-change (2. order) :-0.6385250E+04  (-0.5865857E+04)
 number of electron     864.0000000 magnetization     216.0000000
 augmentation part      864.0000000 magnetization     216.0000000

 Free energy of the ion-electron system (eV)
  ---------------------------------------------------
  alpha Z        PSCENC =      3186.28924586
  Ewald energy   TEWEN  =    -37810.67409911
  -Hartree energ DENC   =     -1859.05564035
  -exchange      EXHF   =         0.00000000
  -V(xc)+E(xc)   XCENC  =      3010.07026380
  PAW double counting   =     23413.06034368   -23534.13957697
  entropy T*S    EENTRO =        -0.00000000
  eigenvalues    EBANDS =       360.29951527
  atomic energy  EATOM  =     31773.92217076
  Solvation  Ediel_sol  =         0.00000000
  ---------------------------------------------------
  free energy    TOTEN  =     -1460.22777705 eV

  energy without entropy =    -1460.22777705  energy(sigma->0) =    -1460.22777705


--------------------------------------------------------------------------------------------------------




--------------------------------------- Iteration      1(   3)  ---------------------------------------


     EDDAV:  cpu time    8.1356: real time    8.7850
       DOS:  cpu time    0.0020: real time    0.0020
    --------------------------------------------
      LOOP:  cpu time    8.1376: real time    8.7870

 eigenvalue-minimisations  :  3435
 total energy-change (2. order) :-0.4726647E+03  (-0.4659848E+03)
 number of electron     864.0000000 magnetization     216.0000000
 augmentation part      864.0000000 magnetization     216.0000000

 Free energy of the ion-electron system (eV)
  ---------------------------------------------------
  alpha Z        PSCENC =      3186.28924586
  Ewald energy   TEWEN  =    -37810.67409911
  -Hartree energ DENC   =     -1859.05564035
  -exchange      EXHF   =         0.00000000
  -V(xc)+E(xc)   XCENC  =      3010.07026380
  PAW double counting   =     23413.06034368   -23534.13957697
  entropy T*S    EENTRO =        -0.00000000
  eigenvalues    EBANDS =      -112.36519263
  atomic energy  EATOM  =     31773.92217076
  Solvation  Ediel_sol  =         0.00000000
  ---------------------------------------------------
  free energy    TOTEN  =     -1932.89248495 eV

  energy without entropy =    -1932.89248495  energy(sigma->0) =    -1932.89248495


--------------------------------------------------------------------------------------------------------




--------------------------------------- Iteration      1(   4)  ---------------------------------------


     EDDAV:  cpu time    7.7577: real time    8.3419
       DOS:  cpu time    0.0012: real time    0.0012
    --------------------------------------------
      LOOP:  cpu time    7.7590: real time    8.3432

 eigenvalue-minimisations  :  3264
 total energy-change (2. order) :-0.9040297E+01  (-0.8979445E+01)
 number of electron     864.0000000 magnetization     216.0000000
 augmentation part      864.0000000 magnetization     216.0000000

 Free energy of the ion-electron system (eV)
  ---------------------------------------------------
  alpha Z        PSCENC =      3186.28924586
  Ewald energy   TEWEN  =    -37810.67409911
  -Hartree energ DENC   =     -1859.05564035
  -exchange      EXHF   =         0.00000000
  -V(xc)+E(xc)   XCENC  =      3010.07026380
  PAW double counting   =     23413.06034368   -23534.13957697
  entropy T*S    EENTRO =        -0.00000000
  eigenvalues    EBANDS =      -121.40548949
  atomic energy  EATOM  =     31773.92217076
  Solvation  Ediel_sol  =         0.00000000
  ---------------------------------------------------
  free energy    TOTEN  =     -1941.93278181 eV

  energy without entropy =    -1941.93278181  energy(sigma->0) =    -1941.93278181


--------------------------------------------------------------------------------------------------------




--------------------------------------- Iteration      1(   5)  ---------------------------------------


     EDDAV:  cpu time    8.0377: real time    8.6566
       DOS:  cpu time    0.0005: real time    0.0005
    CHARGE:  cpu time    0.1518: real time    0.1595
    MIXING:  cpu time    0.0052: real time    0.0053
    --------------------------------------------
      LOOP:  cpu time    8.1953: real time    8.8220

 eigenvalue-minimisations  :  3381
 total energy-change (2. order) :-0.1972099E+00  (-0.1967777E+00)
 number of electron     863.9999998 magnetization     126.5807196
 augmentation part       21.5482515 magnetization     126.5295936

 Broyden mixing:
  rms(total) = 0.92993E+01    rms(broyden)= 0.92981E+01
  rms(prec ) = 0.99792E+01
  weight for this iteration     100.00

 Free energy of the ion-electron system (eV)
  ---------------------------------------------------
  alpha Z        PSCENC =      3186.28924586
  Ewald energy   TEWEN  =    -37810.67409911
  -Hartree energ DENC   =     -1859.05564035
  -exchange      EXHF   =         0.00000000
  -V(xc)+E(xc)   XCENC  =      3010.07026380
  PAW double counting   =     23413.06034368   -23534.13957697
  entropy T*S    EENTRO =        -0.00000000
  eigenvalues    EBANDS =      -121.60269935
  atomic energy  EATOM  =     31773.92217076
  Solvation  Ediel_sol  =         0.00000000
  ---------------------------------------------------
  free energy    TOTEN  =     -1942.12999167 eV

  energy without entropy =    -1942.12999167  energy(sigma->0) =    -1942.12999167


--------------------------------------------------------------------------------------------------------




--------------------------------------- Iteration      1(   6)  ---------------------------------------


    POTLOK:  cpu time    0.1746: real time    0.1858
    SETDIJ:  cpu time    0.0337: real time    0.0419
     EDDAV:  cpu time    7.2623: real time    7.8028
       DOS:  cpu time    0.0016: real time    0.0016
    CHARGE:  cpu time    0.1483: real time    0.1578
    MIXING:  cpu time    0.0049: real time    0.0049
    --------------------------------------------
      LOOP:  cpu time    7.6254: real time    8.1948

 eigenvalue-minimisations  :  2985
 total energy-change (2. order) : 0.1482881E+02  (-0.8592157E+01)
 number of electron     863.9999998 magnetization      51.0034535
 augmentation part       21.0944467 magnetization      50.5841869

 Broyden mixing:
  rms(total) = 0.52428E+01    rms(broyden)= 0.52426E+01
  rms(prec ) = 0.56086E+01
  weight for this iteration     100.00

 eigenvalues of (default mixing * dielectric matrix)
  average eigenvalue GAMMA=   0.9991
  0.9991

 Free energy of the ion-electron system (eV)
  ---------------------------------------------------
  alpha Z        PSCENC =      3186.28924586
  Ewald energy   TEWEN  =    -37810.67409911
  -Hartree energ DENC   =     -2274.92180229
  -exchange      EXHF   =         0.00000000
  -V(xc)+E(xc)   XCENC  =      3035.09929960
  PAW double counting   =     41986.09715067   -42120.10919623
  entropy T*S    EENTRO =        -0.00000000
  eigenvalues    EBANDS =       296.99604579
  atomic energy  EATOM  =     31773.92217076
  Solvation  Ediel_sol  =         0.00000000
  ---------------------------------------------------
  free energy    TOTEN  =     -1927.30118495 eV

  energy without entropy =    -1927.30118495  energy(sigma->0) =    -1927.30118495


--------------------------------------------------------------------------------------------------------




--------------------------------------- Iteration      1(   7)  ---------------------------------------


    POTLOK:  cpu time    0.1537: real time    0.1660
    SETDIJ:  cpu time    0.0322: real time    0.0322
     EDDAV:  cpu time    7.1145: real time    7.6722
       DOS:  cpu time    0.0010: real time    0.0010
    CHARGE:  cpu time    0.1445: real time    0.1626
    MIXING:  cpu time    0.0037: real time    0.0037
    --------------------------------------------
      LOOP:  cpu time    7.4497: real time    8.0377

 eigenvalue-minimisations  :  2940
 total energy-change (2. order) :-0.3171635E+02  (-0.6483422E+01)
 number of electron     863.9999998 magnetization       2.6504663
 augmentation part       20.7035821 magnetization       2.5798434

 Broyden mixing:
  rms(total) = 0.23533E+01    rms(broyden)= 0.23531E+01
  rms(prec ) = 0.24453E+01
  weight for this iteration     100.00

 eigenvalues of (default mixing * dielectric matrix)
  average eigenvalue GAMMA=   1.5454
  0.7937  2.2972

 Free energy of the ion-electron system (eV)
  ---------------------------------------------------
  alpha Z        PSCENC =      3186.28924586
  Ewald energy   TEWEN  =    -37810.67409911
  -Hartree energ DENC   =     -2633.88167258
  -exchange      EXHF   =         0.00000000
  -V(xc)+E(xc)   XCENC  =      3044.79114270
  PAW double counting   =     64449.16396089   -64590.74471787
  entropy T*S    EENTRO =        -0.00000000
  eigenvalues    EBANDS =       622.11643586
  atomic energy  EATOM  =     31773.92217076
  Solvation  Ediel_sol  =         0.00000000
  ---------------------------------------------------
  free energy    TOTEN  =     -1959.01753349 eV

  energy without entropy =    -1959.01753349  energy(sigma->0) =    -1959.01753349


--------------------------------------------------------------------------------------------------------




--------------------------------------- Iteration      1(   8)  ---------------------------------------


    POTLOK:  cpu time    0.1427: real time    0.1498
    SETDIJ:  cpu time    0.0323: real time    0.0322
     EDDAV:  cpu time    7.3668: real time    7.9370
       DOS:  cpu time    0.0016: real time    0.0016
    CHARGE:  cpu time    0.1493: real time    0.1544
    MIXING:  cpu time    0.0038: real time    0.0038
    --------------------------------------------
      LOOP:  cpu time    7.6964: real time    8.2788

 eigenvalue-minimisations  :  3075
 total energy-change (2. order) :-0.4491512E+01  (-0.8467069E+00)
 number of electron     863.9999998 magnetization       0.4536399
 augmentation part       20.5140648 magnetization       0.4641650

 Broyden mixing:
  rms(total) = 0.70356E+00    rms(broyden)= 0.70331E+00
  rms(prec ) = 0.72016E+00
  weight for this iteration     100.00

 eigenvalues of (default mixing * dielectric matrix)
  average eigenvalue GAMMA=   1.3012
  2.4354  0.8402  0.6279

 Free energy of the ion-electron system (eV)
  ---------------------------------------------------
  alpha Z        PSCENC =      3186.28924586
  Ewald energy   TEWEN  =    -37810.67409911
  -Hartree energ DENC   =     -2847.89777868
  -exchange      EXHF   =         0.00000000
  -V(xc)+E(xc)   XCENC  =      3062.81581420
  PAW double counting   =     83545.83696623   -83690.67091333
  entropy T*S    EENTRO =        -0.00000000
  eigenvalues    EBANDS =       816.86954843
  atomic energy  EATOM  =     31773.92217076
  Solvation  Ediel_sol  =         0.00000000
  ---------------------------------------------------
  free energy    TOTEN  =     -1963.50904563 eV

  energy without entropy =    -1963.50904563  energy(sigma->0) =    -1963.50904563


--------------------------------------------------------------------------------------------------------




[...]
      2.65875      0.88621      2.65875         0.000001      0.002824     -0.000001
      0.88621      0.88621      0.88621         0.002854      0.002850      0.002853
      0.88621      2.65875      2.65875         0.002825      0.000002     -0.000000
      2.65875      2.65875      0.88621         0.000000     -0.000001      0.002827
      3.54496      0.00000      0.00000         0.002822      0.000003      0.000004
      3.54496      1.77254      1.77254         0.002854     -0.002852     -0.002857
      5.31750      0.00000      1.77254        -0.000001      0.000006     -0.002825
      5.31750      1.77254      0.00000        -0.000007     -0.002823      0.000005
      6.20371      0.88621      2.65875         0.002869      0.002852      0.000009
      4.43129      0.88621      0.88621        -0.002853      0.002858      0.002859
      4.43129      2.65875      2.65875        -0.002823     -0.000001     -0.000000
      6.20371      2.65875      0.88621         0.002871      0.000010      0.002854
      7.09004      0.00000      0.00000        -0.002848     -0.000001      0.000005
      7.09004      1.77254      1.77254        -0.002875     -0.002851     -0.002846
      8.86246      0.00000      1.77254         0.002874      0.000010     -0.002850
      8.86246      1.77254      0.00000         0.002876     -0.002853      0.000008
      9.74879      0.88621      2.65875        -0.002870      0.002853     -0.000006
      7.97625      0.88621      0.88621         0.000007      0.002854      0.002853
      7.97625      2.65875      2.65875         0.000001     -0.000001     -0.000001
      9.74879      2.65875      0.88621        -0.002871     -0.000007      0.002854
      0.00000      3.54496      0.00000         0.000004      0.002820      0.000002
      0.00000      5.31750      1.77254         0.000003     -0.000003     -0.002825
      1.77254      3.54496      1.77254        -0.002855      0.002851     -0.002856
      1.77254      5.31750      0.00000        -0.002821     -0.000005      0.000002
      2.65875      4.43129      2.65875        -0.000000     -0.002824      0.000001
      0.88621      4.43129      0.88621         0.002857     -0.002852      0.002861
      0.88621      6.20371      2.65875         0.002853      0.002871      0.000006
      2.65875      6.20371      0.88621         0.000007      0.002872      0.002854
      3.54496      3.54496      0.00000         0.002847      0.002848     -0.000004
      3.54496      5.31750      1.77254         0.002851      0.000003     -0.002852
      5.31750      3.54496      1.77254         0.000003      0.002849     -0.002852
      5.31750      5.31750      0.00000        -0.000005     -0.000005      0.000001
      6.20371      4.43129      2.65875         0.002871     -0.002849     -0.000009
      4.43129      4.43129      0.88621        -0.002845     -0.002848      0.002852
      4.43129      6.20371      2.65875        -0.002850      0.002871     -0.000009
      6.20371      6.20371      0.88621         0.002868      0.002867      0.002853
      7.09004      3.54496      0.00000        -0.002876      0.002850      0.000008
      7.09004      5.31750      1.77254        -0.002872     -0.000010     -0.002851
      8.86246      3.54496      1.77254         0.002871      0.002847     -0.002849
      8.86246      5.31750      0.00000         0.002847     -0.000003      0.000005
      9.74879      4.43129      2.65875        -0.002870     -0.002848      0.000007
      7.97625      4.43129      0.88621        -0.000008     -0.002849      0.002854
      7.97625      6.20371      2.65875        -0.000000      0.002842     -0.000000
      9.74879      6.20371      0.88621        -0.002874      0.002874      0.002858
      0.00000      7.09004      0.00000         0.000004     -0.002845      0.000004
      0.00000      8.86246      1.77254         0.000011      0.002870     -0.002850
      1.77254      7.09004      1.77254        -0.002851     -0.002872     -0.002851
      1.77254      8.86246      0.00000        -0.002853      0.002874      0.000009
      2.65875      7.97625      2.65875        -0.000001      0.000001     -0.000001
      0.88621      7.97625      0.88621         0.002854      0.000008      0.002853
      0.88621      9.74879      2.65875         0.002856     -0.002871     -0.000008
      2.65875      9.74879      0.88621        -0.000009     -0.002874      0.002857
      3.54496      7.09004      0.00000         0.002849     -0.002874      0.000008
      3.54496      8.86246      1.77254         0.002848      0.002874     -0.002852
      5.31750      7.09004      1.77254        -0.000010     -0.002872     -0.002852
      5.31750      8.86246      0.00000        -0.000002      0.002846      0.000003
      6.20371      7.97625      2.65875         0.002844     -0.000000      0.000000
      4.43129      7.97625      0.88621        -0.002852     -0.000007      0.002857
      4.43129      9.74879      2.65875        -0.002851     -0.002872      0.000007
      6.20371      9.74879      0.88621         0.002874     -0.002874      0.002860
      7.09004      7.09004      0.00000        -0.002875     -0.002871     -0.000005
      7.09004      8.86246      1.77254        -0.002878      0.002879     -0.002856
      8.86246      7.09004      1.77254         0.002877     -0.002877     -0.002855
      8.86246      8.86246      0.00000         0.002872      0.002871     -0.000006
      9.74879      7.97625      2.65875        -0.002846      0.000002      0.000001
      7.97625      7.97625      0.88621         0.000001     -0.000001      0.002827
      7.97625      9.74879      2.65875        -0.000001     -0.002845      0.000003
      9.74879      9.74879      0.88621        -0.002869     -0.002870      0.002852
      0.00000      0.00000      3.54496         0.000001      0.000003      0.002824
      0.00000      1.77254      5.31750         0.000002     -0.002826     -0.000003
      1.77254      0.00000      5.31750        -0.002826      0.000001     -0.000004
      1.77254      1.77254      3.54496        -0.002855     -0.002855      0.002853
      2.65875      0.88621      6.20371         0.000006      0.002855      0.002872
      0.88621      0.88621      4.43129         0.002857      0.002858     -0.002854
      0.88621      2.65875      6.20371         0.002854      0.000004      0.002872
      2.65875      2.65875      4.43129         0.000002     -0.000000     -0.002824
      3.54496      0.00000      3.54496         0.002851     -0.000004      0.002850
      3.54496      1.77254      5.31750         0.002853     -0.002850      0.000004
      5.31750      0.00000      5.31750        -0.000003      0.000002     -0.000007
      5.31750      1.77254      3.54496         0.000006     -0.002851      0.002851
      6.20371      0.88621      6.20371         0.002869      0.002852      0.002870
      4.43129      0.88621      4.43129        -0.002847      0.002853     -0.002852
      4.43129      2.65875      6.20371        -0.002848     -0.000008      0.002872
      6.20371      2.65875      4.43129         0.002867     -0.000008     -0.002849
      7.09004      0.00000      3.54496        -0.002877      0.000011      0.002851
      7.09004      1.77254      5.31750        -0.002874     -0.002850     -0.000015
      8.86246      0.00000      5.31750         0.002845      0.000003     -0.000004
      8.86246      1.77254      3.54496         0.002871     -0.002851      0.002849
      9.74879      0.88621      6.20371        -0.002873      0.002854      0.002877
      7.97625      0.88621      4.43129        -0.000010      0.002852     -0.002849
      7.97625      2.65875      6.20371        -0.000001     -0.000001      0.002842
      9.74879      2.65875      4.43129        -0.002870      0.000008     -0.002852
      0.00000      3.54496      3.54496        -0.000005      0.002848      0.002850
      0.00000      5.31750      5.31750         0.000003     -0.000002     -0.000006
      1.77254      3.54496      5.31750        -0.002851      0.002851      0.000005
      1.77254      5.31750      3.54496        -0.002851      0.000005      0.002849
      2.65875      4.43129      6.20371        -0.000005     -0.002851      0.002872
      0.88621      4.43129      4.43129         0.002852     -0.002848     -0.002851
      0.88621      6.20371      6.20371         0.002852      0.002868      0.002870
      2.65875      6.20371      4.43129        -0.000006      0.002870     -0.002851
      3.54496      3.54496      3.54496         0.002856      0.002852      0.002851
      3.54496      5.31750      5.31750         0.002823     -0.000004     -0.000002
      5.31750      3.54496      5.31750        -0.000000      0.002821     -0.000005
      5.31750      5.31750      3.54496        -0.000002     -0.000005      0.002826
      6.20371      4.43129      6.20371         0.002871     -0.002853      0.002873
      4.43129      4.43129      4.43129        -0.002852     -0.002854     -0.002853
      4.43129      6.20371      6.20371        -0.002855      0.002873      0.002876
      6.20371      6.20371      4.43129         0.002875      0.002874     -0.002854
      7.09004      3.54496      3.54496        -0.002873      0.002846      0.002850
      7.09004      5.31750      5.31750        -0.002850     -0.000005     -0.000004
      8.86246      3.54496      5.31750         0.002870      0.002848     -0.000012
      8.86246      5.31750      3.54496         0.002871     -0.000010      0.002850
      9.74879      4.43129      6.20371        -0.002872     -0.002849      0.002870
      7.97625      4.43129      4.43129         0.000008     -0.002848     -0.002851
      7.97625      6.20371      6.20371         0.000005      0.002870      0.002870
      9.74879      6.20371      4.43129        -0.002870      0.002869     -0.002850
      0.00000      7.09004      3.54496         0.000010     -0.002874      0.002849
      0.00000      8.86246      5.31750         0.000005      0.002849     -0.000005
      1.77254      7.09004      5.31750        -0.002849     -0.002870     -0.000013
      1.77254      8.86246      3.54496        -0.002852      0.002870      0.002850
      2.65875      7.97625      6.20371         0.000002      0.000001      0.002847
      0.88621      7.97625      4.43129         0.002854     -0.000004     -0.002852
      0.88621      9.74879      6.20371         0.002855     -0.002873      0.002878
      2.65875      9.74879      4.43129         0.000006     -0.002870     -0.002853
      3.54496      7.09004      3.54496         0.002846     -0.002872      0.002849
      3.54496      8.86246      5.31750         0.002847      0.002872     -0.000009
      5.31750      7.09004      5.31750        -0.000001     -0.002848     -0.000003
      5.31750      8.86246      3.54496        -0.000008      0.002876      0.002851
      6.20371      7.97625      6.20371         0.002873      0.000006      0.002870
      4.43129      7.97625      4.43129        -0.002848      0.000008     -0.002852
      4.43129      9.74879      6.20371        -0.002848     -0.002869      0.002869
      6.20371      9.74879      4.43129         0.002870     -0.002871     -0.002851
      7.09004      7.09004      3.54496        -0.002878     -0.002878      0.002854
      7.09004      8.86246      5.31750        -0.002873      0.002876      0.000005
      8.86246      7.09004      5.31750         0.002873     -0.002874      0.000002
      8.86246      8.86246      3.54496         0.002877      0.002877      0.002854
      9.74879      7.97625      6.20371        -0.002874     -0.000006      0.002871
      7.97625      7.97625      4.43129        -0.000000      0.000003     -0.002824
      7.97625      9.74879      6.20371        -0.000009     -0.002871      0.002870
      9.74879      9.74879      4.43129        -0.002877     -0.002875     -0.002854
      0.00000      0.00000      7.09004         0.000001      0.000002     -0.002848
      0.00000      1.77254      8.86246         0.000010     -0.002850      0.002875
      1.77254      0.00000      8.86246        -0.002853      0.000010      0.002876
      1.77254      1.77254      7.09004        -0.002850     -0.002850     -0.002869
      2.65875      0.88621      9.74879        -0.000009      0.002854     -0.002875
      0.88621      0.88621      7.97625         0.002854      0.002852      0.000007
      0.88621      2.65875      9.74879         0.002852     -0.000009     -0.002874
      2.65875      2.65875      7.97625         0.000000     -0.000002     -0.000000
      3.54496      0.00000      7.09004         0.002849      0.000009     -0.002875
      3.54496      1.77254      8.86246         0.002846     -0.002848      0.002875
      5.31750      0.00000      8.86246        -0.000004     -0.000000      0.002848
      5.31750      1.77254      7.09004        -0.000010     -0.002850     -0.002876
      6.20371      0.88621      9.74879         0.002873      0.002857     -0.002875
      4.43129      0.88621      7.97625        -0.002848      0.002857     -0.000008
      4.43129      2.65875      9.74879        -0.002851      0.000008     -0.002873
      6.20371      2.65875      7.97625         0.002841     -0.000002     -0.000001
      7.09004      0.00000      7.09004        -0.002872     -0.000009     -0.002877
      7.09004      1.77254      8.86246        -0.002877     -0.002851      0.002875
      8.86246      0.00000      8.86246         0.002876     -0.000005      0.002873
      8.86246      1.77254      7.09004         0.002880     -0.002856     -0.002879
      9.74879      0.88621      9.74879        -0.002866      0.002852     -0.002873
      7.97625      0.88621      7.97625        -0.000000      0.002825     -0.000000
      7.97625      2.65875      9.74879        -0.000000      0.000000     -0.002844
      9.74879      2.65875      7.97625        -0.002843     -0.000002      0.000002
      0.00000      3.54496      7.09004         0.000009      0.002846     -0.002872
      0.00000      5.31750      8.86246         0.000005     -0.000005      0.002848
      1.77254      3.54496      8.86246        -0.002850      0.002847      0.002876
      1.77254      5.31750      7.09004        -0.002849     -0.000011     -0.002873
      2.65875      4.43129      9.74879         0.000009     -0.002850     -0.002871
      0.88621      4.43129      7.97625         0.002854     -0.002851     -0.000006
      0.88621      6.20371      9.74879         0.002858      0.002877     -0.002875
      2.65875      6.20371      7.97625         0.000000      0.002845      0.000001
      3.54496      3.54496      7.09004         0.002848      0.002850     -0.002873
      3.54496      5.31750      8.86246         0.002851     -0.000013      0.002874
      5.31750      3.54496      8.86246        -0.000013      0.002851      0.002873
      5.31750      5.31750      7.09004        -0.000004     -0.000008     -0.002847
      6.20371      4.43129      9.74879         0.002868     -0.002850     -0.002869
      4.43129      4.43129      7.97625        -0.002849     -0.002849      0.000008
      4.43129      6.20371      9.74879        -0.002848      0.002868     -0.002868
      6.20371      6.20371      7.97625         0.002871      0.002870      0.000005
      7.09004      3.54496      7.09004        -0.002878      0.002854     -0.002880
      7.09004      5.31750      8.86246        -0.002876      0.000001      0.002873
      8.86246      3.54496      8.86246         0.002878      0.002851      0.002876
      8.86246      5.31750      7.09004         0.002871      0.000002     -0.002873
      9.74879      4.43129      9.74879        -0.002875     -0.002852     -0.002875
      7.97625      4.43129      7.97625         0.000001     -0.002820      0.000001
      7.97625      6.20371      9.74879        -0.000008      0.002869     -0.002871
      9.74879      6.20371      7.97625        -0.002873      0.002869     -0.000006
      0.00000      7.09004      7.09004        -0.000004     -0.002870     -0.002873
      0.00000      8.86246      8.86246        -0.000002      0.002876      0.002874
      1.77254      7.09004      8.86246        -0.002854     -0.002875      0.002877
      1.77254      8.86246      7.09004        -0.002857      0.002876     -0.002878
      2.65875      7.97625      9.74879        -0.000002      0.000002     -0.002845
      0.88621      7.97625      7.97625         0.002828      0.000003      0.000003
      0.88621      9.74879      9.74879         0.002853     -0.002869     -0.002872
      2.65875      9.74879      7.97625        -0.000003     -0.002845      0.000003
      3.54496      7.09004      7.09004         0.002852     -0.002876     -0.002879
      3.54496      8.86246      8.86246         0.002855      0.002876      0.002879
      5.31750      7.09004      8.86246         0.000004     -0.002874      0.002874
      5.31750      8.86246      7.09004         0.000005      0.002873     -0.002874
      6.20371      7.97625      9.74879         0.002870     -0.000010     -0.002872
      4.43129      7.97625      7.97625        -0.002824      0.000000      0.000002
      4.43129      9.74879      9.74879        -0.002855     -0.002877     -0.002878
      6.20371      9.74879      7.97625         0.002872     -0.002869     -0.000009
      7.09004      7.09004      7.09004        -0.002876     -0.002871     -0.002873
      7.09004      8.86246      8.86246        -0.002872      0.002871      0.002873
      8.86246      7.09004      8.86246         0.002873     -0.002869      0.002874
      8.86246      8.86246      7.09004         0.002870      0.002875     -0.002874
      9.74879      7.97625      9.74879        -0.002869      0.000008     -0.002874
      7.97625      7.97625      7.97625        -0.000001      0.000000     -0.000001
      7.97625      9.74879      9.74879         0.000009     -0.002871     -0.002874
      9.74879      9.74879      7.97625        -0.002870     -0.002869      0.000007
 -----------------------------------------------------------------------------------
    total drift:                                0.000006     -0.000000     -0.000003


--------------------------------------------------------------------------------------------------------



  FREE ENERGIE OF THE ION-ELECTRON SYSTEM (eV)
  ---------------------------------------------------
  free  energy   TOTEN  =     -1963.51068343 eV

  energy  without entropy=    -1963.51068343  energy(sigma->0) =    -1963.51068343
 


--------------------------------------------------------------------------------------------------------


    POTLOK:  cpu time    0.1786: real time    0.1962


--------------------------------------------------------------------------------------------------------


 writing wavefunctions
     LOOP+:  cpu time  124.9997: real time  135.6046
    4ORBIT:  cpu time    0.0000: real time    0.0000

 total amount of memory used by VASP MPI-rank0    60647. kBytes
=======================================================================

   base      :      30000. kBytes
   nonl-proj :       4308. kBytes
   fftplans  :       4899. kBytes
   grid      :      12109. kBytes
   one-center:         82. kBytes
   wavefun   :       9249. kBytes
 
  
  
 General timing and accounting informations for this job:
 ========================================================
  
                  Total CPU time used (sec):      136.425
                            User time (sec):      129.216
                          System time (sec):        7.209
                         Elapsed time (sec):      150.995
  
                   Maximum memory used (kb):      280276.
                   Average memory used (kb):          N/A
  
                          Minor page faults:       157818
                          Major page faults:            0
                 Voluntary context switches:         7346
