 vasp.6.2.1 16May21 (build Sep 27 2021 21:11:04) gamma-only                     
  
 executed on             LinuxIFC date 2023.05.14  12:43:16
 running   24 mpi-ranks, with    1 threads/rank
 distrk:  each k-point on   24 cores,    1 groups
 distr:  one band on NCORE=   8 cores,    3 groups


--------------------------------------------------------------------------------------------------------


 INCAR:
   GGA = PE
   ISTART = 1
   ISPIN = 2
   ENCUT = 700
   ENAUG = 1400
   EDIFF = 1E-6
   IBRION = 2
   POTIM = 0.2
   ALGO = All
   NSW = 0
   EDIFFG = -1E-2
   ISMEAR = 0
   SIGMA = 0.01
   ISIF = 1
   LREAL = .FALSE.
   ISYM = 0
   NELECT = 867
   PREC = Accurate
   LHYPERFINE = .TRUE.
   LEFG = .TRUE.
   LHFCALC = .TRUE.
   HFSCREEN = 0.2
   NCORE = 8
   NELM = 60
   NWRITE = 2
   SYMPREC = 1.0e-8

 POTCAR:    PAW_PBE C 08Apr2002                   
 POTCAR:    PAW_PBE Pa 07Sep2000                  
 -----------------------------------------------------------------------------
|                                                                             |
|           W    W    AA    RRRRR   N    N  II  N    N   GGGG   !!!           |
|           W    W   A  A   R    R  NN   N  II  NN   N  G    G  !!!           |
|           W    W  A    A  R    R  N N  N  II  N N  N  G       !!!           |
|           W WW W  AAAAAA  RRRRR   N  N N  II  N  N N  G  GGG   !            |
|           WW  WW  A    A  R   R   N   NN  II  N   NN  G    G                |
|           W    W  A    A  R    R  N    N  II  N    N   GGGG   !!!           |
|                                                                             |
|     You use a magnetic or noncollinear calculation, but did not specify     |
|     the initial magnetic moment with the MAGMOM tag. Note that a            |
|     default of 1 will be used for all atoms. This ferromagnetic setup       |
|     may break the symmetry of the crystal, in particular it may rule        |
|     out finding an antiferromagnetic solution. Thence, we recommend         |
|     setting the initial magnetic moment manually or verifying carefully     |
|     that this magnetic setup is desired.                                    |
|                                                                             |
 -----------------------------------------------------------------------------

 POTCAR:    PAW_PBE C 08Apr2002                   
   SHA256 =  253f7b50bb8d59471dbedb8285d89021f4a42ed1a2c5d38a03a736e69125dd95 C/POTCAR              
   COPYR  = (c) Copyright 08Apr2002 Georg Kresse                                                    
   COPYR  = This file is part of the software VASP. Any use, copying, and all other rights are regul
   COPYR  = If you do not have a valid VASP license, you may not use, copy or distribute this file. 
   VRHFIN =C: s2p2                                                                                  
   LEXCH  = PE                                                                                      
   EATOM  =   147.1560 eV,   10.8157 Ry                                                             
                                                                                                    
   TITEL  = PAW_PBE C 08Apr2002                                                                     
   LULTRA =        F    use ultrasoft PP ?                                                          
   IUNSCR =        1    unscreen: 0-lin 1-nonlin 2-no                                               
   RPACOR =    1.200    partial core radius                                                         
   POMASS =   12.011; ZVAL   =    4.000    mass and valenz                                          
   RCORE  =    1.500    outmost cutoff radius                                                       
   RWIGS  =    1.630; RWIGS  =    0.863    wigner-seitz radius (au A)                               
   ENMAX  =  400.000; ENMIN  =  300.000 eV                                                          
   ICORE  =        2    local potential                                                             
   LCOR   =        T    correct aug charges                                                         
   LPAW   =        T    paw PP                                                                      
   EAUG   =  644.873                                                                                
   DEXC   =    0.000                                                                                
   RMAX   =    1.529    core radius for proj-oper                                                   
   RAUG   =    1.300    factor for augmentation sphere                                              
   RDEP   =    1.501    radius for radial grids                                                     
   RDEPT  =    1.300    core radius for aug-charge                                                  
                                                                                                    
   Atomic configuration                                                                             
    4 entries                                                                                       
     n  l   j            E        occ.                                                              
     1  0  0.50      -273.3789   2.0000                                                             
     2  0  0.50       -13.7508   2.0000                                                             
     2  1  0.50        -5.2854   2.0000                                                             
     3  2  1.50        -5.4423   0.0000                                                             
   Description                                                                                      
     l       E           TYP  RCUT    TYP  RCUT                                                     
     0    -13.7508458     23  1.200                                                                 
     0     -8.2022199     23  1.200                                                                 
     1     -5.2854383     23  1.500                                                                 
     1     34.0145650     23  1.500                                                                 
     2     -5.4423304      7  1.500                                                                 
  local pseudopotential read in
  partial core-charges read in
  partial kinetic energy density read in
  atomic valenz-charges read in
  non local Contribution for L=           0  read in
    real space projection operators read in
  non local Contribution for L=           0  read in
    real space projection operators read in
  non local Contribution for L=           1  read in
    real space projection operators read in
  non local Contribution for L=           1  read in
    real space projection operators read in
    PAW grid and wavefunctions read in
 
   number of l-projection  operators is LMAX  =           4
   number of lm-projection operators is LMMAX =           8
 
 POTCAR:    PAW_PBE Pa 07Sep2000                  
   SHA256 =  04e32654b760de29c7f02015f2c4b9b92aeb120699210996a29249ba80bfa323 Pa/POTCAR             
   COPYR  = (c) Copyright 07Sep2000 Georg Kresse                                                    
   COPYR  = This file is part of the software VASP. Any use, copying, and all other rights are regul
   COPYR  = If you do not have a valid VASP license, you may not use, copy or distribute this file. 
   VRHFIN =Pa:  [Xe,5d,4f]                                                                          
   LEXCH  = PE                                                                                      
   EATOM  =  1180.0855 eV,   86.7338 Ry                                                             
                                                                                                    
   TITEL  = PAW_PBE Pa 07Sep2000                                                                    
   LULTRA =        F    use ultrasoft PP ?                                                          
   IUNSCR =        1    unscreen: 0-lin 1-nonlin 2-no                                               
   RPACOR =    2.200    partial core radius                                                         
   POMASS =  229.000; ZVAL   =   13.000    mass and valenz                                          
   RCORE  =    2.800    outmost cutoff radius                                                       
   RWIGS  =    2.900; RWIGS  =    1.535    wigner-seitz radius (au A)                               
   ENMAX  =  252.193; ENMIN  =  189.145 eV                                                          
   RCLOC  =    1.808    cutoff for local pot                                                        
   LCOR   =        T    correct aug charges                                                         
   LPAW   =        T    paw PP                                                                      
   EAUG   =  536.979                                                                                
   DEXC   =    0.000                                                                                
   RMAX   =    2.858    core radius for proj-oper                                                   
   RAUG   =    1.300    factor for augmentation sphere                                              
   RDEP   =    2.921    radius for radial grids                                                     
   RDEPT  =    2.247    core radius for aug-charge                                                  
                                                                                                    
   Atomic configuration                                                                             
   18 entries                                                                                       
     n  l   j            E        occ.                                                              
     1  0  0.50   -112985.5190   2.0000                                                             
     2  0  0.50    -21035.6541   2.0000                                                             
     2  1  1.50    -17527.8639   6.0000                                                             
     3  0  0.50     -5294.0126   2.0000                                                             
     3  1  1.50     -4318.2192   6.0000                                                             
     3  2  2.50     -3460.9455  10.0000                                                             
     4  0  0.50     -1342.3530   2.0000                                                             
     4  1  1.50     -1023.6497   6.0000                                                             
     4  2  2.50      -699.1199  10.0000                                                             
     4  3  3.50      -353.3721  14.0000                                                             
     5  0  0.50      -298.9475   2.0000                                                             
     5  1  1.50      -201.1573   6.0000                                                             
     5  2  2.50       -97.1791  10.0000                                                             
     6  0  0.50       -48.3074   2.0000                                                             
     7  0  0.50        -4.5039   2.0000                                                             
     6  1  1.50       -24.3672   6.0000                                                             
     6  2  1.50        -3.1149   2.0000                                                             
     5  3  2.50        -5.1513   1.0000                                                             
   Description                                                                                      
     l       E           TYP  RCUT    TYP  RCUT                                                     
     0    -48.3074378     23  2.800                                                                 
     0     -4.5039177     23  2.800                                                                 
     1    -24.3672020     23  2.500                                                                 
     1    -25.7277846     23  2.500                                                                 
     2     -3.1148861     23  2.500                                                                 
     2      1.7959667     23  2.500                                                                 
     3     -5.1512774     23  2.800                                                                 
     3     -6.5118600     23  2.800                                                                 
  local pseudopotential read in
  partial core-charges read in
  partial kinetic energy density read in
  atomic valenz-charges read in
  non local Contribution for L=           0  read in
    real space projection operators read in
  non local Contribution for L=           0  read in
    real space projection operators read in
  non local Contribution for L=           1  read in
    real space projection operators read in
  non local Contribution for L=           1  read in
    real space projection operators read in
  non local Contribution for L=           2  read in
    real space projection operators read in
  non local Contribution for L=           2  read in
    real space projection operators read in
  non local Contribution for L=           3  read in
    real space projection operators read in
  non local Contribution for L=           3  read in
    real space projection operators read in
    PAW grid and wavefunctions read in
 
   number of l-projection  operators is LMAX  =           8
   number of lm-projection operators is LMMAX =          32
 
 -----------------------------------------------------------------------------
|                                                                             |
|               ----> ADVICE to this user running VASP <----                  |
|                                                                             |
|     You have a (more or less) 'large supercell' and for larger cells it     |
|     might be more efficient to use real-space projection operators.         |
|     Therefore, try LREAL= Auto in the INCAR file.                           |
|     Mind: For very accurate calculation, you might also keep the            |
|     reciprocal projection scheme (i.e. LREAL=.FALSE.).                      |
|                                                                             |
 -----------------------------------------------------------------------------

 WARNING: PSMAXN for non-local potential too small
          PSMAXN should be >   13.5545592237991       NTYP=           2
  PAW_PBE C 08Apr2002                   :
 energy of atom  1       EATOM= -147.1560
 kinetic energy error for atom=    0.0032 (will be added to EATOM!!)
  PAW_PBE Pa 07Sep2000                  :
 energy of atom  2       EATOM=-1180.0855
 kinetic energy error for atom=    0.0005 (will be added to EATOM!!)
 
 
 POSCAR: prv2
  positions in direct lattice
  velocities in cartesian coordinates
 exchange correlation table for  LEXCH =        8
   RHO(1)=    0.500       N(1)  =     2000
   RHO(2)=  100.500       N(2)  =     4000
 


--------------------------------------------------------------------------------------------------------


 ion  position               nearest neighbor table
   1  1.000  0.000  0.000- 162 1.53   6 1.53 196 1.54  72 1.54
   2  1.000  0.167  0.167-   7 1.53  24 1.53  21 1.53   6 1.54
   3  0.166  0.000  0.166-   5 1.53   6 1.53  56 1.54  55 1.54
   4  0.167  0.167  1.000-   8 1.53 148 1.53 146 1.53   6 1.54
   5  0.249  0.084  0.249-  81 1.53   3 1.53  10 1.53  76 1.53
   6  0.083  0.084  0.083-   1 1.53   3 1.53   2 1.54   4 1.54
   7  0.083  0.250  0.250-   2 1.53  76 1.53  97 1.54  27 1.54
   8  0.250  0.250  0.083-   4 1.53  10 1.53  33 1.54  27 1.54
   9  0.333  0.000  1.000- 204 1.53  14 1.53 146 1.53  56 1.53
  10  0.333  0.166  0.165-  15 1.53  14 1.53   8 1.53   5 1.53
  11  0.500  0.002  0.165-  63 1.52  14 1.53  64 1.53  13 1.54
  12  0.500  0.167  0.000- 154 1.53  14 1.53  16 1.53 156 1.53
  13  0.583  0.084  0.250-  18 1.53  84 1.53  89 1.54  11 1.54
  14  0.417  0.084  0.082-  11 1.53  12 1.53  10 1.53   9 1.53
  15  0.416  0.249  0.248- 105 1.53  10 1.53  35 1.54  84 1.54
  16  0.583  0.250  0.083-  35 1.52  12 1.53  41 1.53  18 1.53
  17  0.667  0.000  0.000-  64 1.53 154 1.53  22 1.53 212 1.53
  18  0.667  0.167  0.167-  13 1.53  22 1.53  16 1.53  23 1.53
  19  0.833  0.000  0.167-  22 1.53  21 1.53  72 1.53  71 1.54
  20  0.833  0.167  0.000- 164 1.53  24 1.53  22 1.53 162 1.54
  21  0.916  0.084  0.250-  19 1.53  73 1.53  92 1.53   2 1.53
  22  0.750  0.084  0.084-  19 1.53  17 1.53  18 1.53  20 1.53
  23  0.750  0.250  0.250-  43 1.53 111 1.53  92 1.53  18 1.53
  24  0.917  0.250  0.083-   2 1.53  20 1.53  25 1.54  43 1.54
  25  1.000  0.334  0.000-  30 1.53 186 1.53  24 1.54 148 1.54
  26  0.999  0.500  0.166-  31 1.53  48 1.53  45 1.54  30 1.54
  27  0.166  0.333  0.166-  29 1.53  30 1.53   7 1.54   8 1.54
  28  0.166  0.500  0.999-  32 1.53 172 1.53 170 1.54  30 1.54
  29  0.249  0.416  0.249-  27 1.53 105 1.54 100 1.54  34 1.54
  30  0.083  0.417  0.083-  25 1.53  27 1.53  28 1.54  26 1.54
  31  0.082  0.584  0.249- 100 1.53  26 1.53 119 1.54  51 1.54
  32  0.249  0.584  0.082-  34 1.53  28 1.53  57 1.54  51 1.54
  33  0.333  0.334  0.999-  38 1.53 156 1.53 170 1.54   8 1.54
  34  0.331  0.500  0.165-  32 1.53  39 1.53  38 1.54  29 1.54
  35  0.500  0.332  0.165-  16 1.52  15 1.54  38 1.54  37 1.54
  36  0.500  0.500  1.000- 178 1.53  38 1.53 180 1.54  40 1.54
  37  0.583  0.416  0.249- 108 1.48  42 1.53 111 1.54  35 1.54
  38  0.416  0.417  0.083-  33 1.53  36 1.53  34 1.54  35 1.54
  39  0.415  0.583  0.248- 108 1.52  34 1.53  59 1.54 127 1.56 214 2.85
  40  0.583  0.584  0.084-  59 1.53  42 1.53  65 1.54  36 1.54
  41  0.667  0.334  0.001- 178 1.53  16 1.53  46 1.54 164 1.54
  42  0.666  0.500  0.167-  40 1.53  37 1.53  47 1.54  46 1.54
  43  0.833  0.334  0.167-  46 1.53  45 1.53  23 1.53  24 1.54
  44  0.834  0.500  0.001- 188 1.53  48 1.53  46 1.54 186 1.54
  45  0.916  0.417  0.250-  43 1.53  97 1.54  26 1.54 114 1.54
  46  0.750  0.417  0.084-  43 1.53  41 1.54  44 1.54  42 1.54
  47  0.748  0.584  0.252- 134 1.51  42 1.54 114 1.54  67 1.55
  48  0.916  0.584  0.084-  26 1.53  44 1.53  67 1.54  49 1.54
  49  1.000  0.667  0.000-  54 1.53 210 1.53  48 1.54 172 1.54
  50  1.000  0.834  0.167-  72 1.53  55 1.53  54 1.54  69 1.54
  51  0.165  0.667  0.165-  54 1.53  53 1.53  31 1.54  32 1.54
  52  0.167  0.834  1.000- 196 1.53  56 1.53  54 1.54 194 1.54
  53  0.248  0.751  0.248- 127 1.52  51 1.53 122 1.54  58 1.54
  54  0.083  0.750  0.083-  51 1.53  49 1.53  50 1.54  52 1.54
  55  0.083  0.917  0.250- 122 1.53  50 1.53  73 1.53   3 1.54
  56  0.250  0.917  0.083-  58 1.53  52 1.53   9 1.53   3 1.54
  57  0.333  0.667  0.999- 194 1.53 180 1.54  32 1.54  62 1.54
  58  0.333  0.834  0.166-  56 1.53  62 1.54  53 1.54  63 1.54
  59  0.500  0.667  0.166-  40 1.53  39 1.54  62 1.54  61 1.54
  60  0.500  0.834  0.000-  62 1.53 202 1.53  64 1.53 204 1.53
  61  0.583  0.750  0.251- 134 1.52  59 1.54  66 1.54 129 1.55
  62  0.416  0.750  0.083-  60 1.53  58 1.54  57 1.54  59 1.54
  63  0.416  0.920  0.248-  11 1.52 129 1.52  81 1.54  58 1.54
  64  0.583  0.917  0.083-  17 1.53  66 1.53  60 1.53  11 1.53
  65  0.667  0.667  0.001-  70 1.53  40 1.54 188 1.54 202 1.54
  66  0.666  0.834  0.167-  64 1.53  70 1.53  71 1.54  61 1.54
  67  0.833  0.667  0.167-  69 1.53  70 1.53  48 1.54  47 1.55
  68  0.833  0.834  0.000-  72 1.53 212 1.53 210 1.54  70 1.54
  69  0.916  0.750  0.250- 119 1.53 137 1.53  67 1.53  50 1.54
  70  0.750  0.750  0.084-  65 1.53  66 1.53  67 1.53  68 1.54
  71  0.750  0.917  0.250-  89 1.53  66 1.54 137 1.54  19 1.54
  72  0.916  0.917  0.084-  68 1.53  50 1.53  19 1.53   1 1.54
  73  1.000  0.000  0.333- 141 1.53  78 1.53  21 1.53  55 1.53
  74  1.000  0.167  0.500-  78 1.53  93 1.53  96 1.53  79 1.53
  75  0.165  0.002  0.500- 126 1.52  78 1.53 125 1.53  77 1.54
  76  0.165  0.166  0.333-  80 1.53  78 1.53   7 1.53   5 1.53
  77  0.250  0.084  0.583- 145 1.53  82 1.53 150 1.54  75 1.54
  78  0.082  0.084  0.417-  75 1.53  74 1.53  76 1.53  73 1.53
  79  0.083  0.250  0.583-  99 1.52  74 1.53 166 1.53 145 1.53
  80  0.248  0.249  0.416- 105 1.53  76 1.53  99 1.54  82 1.54
  81  0.333  0.001  0.333-   5 1.53  86 1.54  63 1.54 126 1.54
  82  0.333  0.167  0.500-  77 1.53  86 1.53  80 1.54  87 1.54
  83  0.500  0.001  0.500- 132 1.53 133 1.53  86 1.54  85 1.54
  84  0.500  0.167  0.333-  13 1.53  86 1.53  15 1.54  88 1.54
  85  0.584  0.084  0.584-  90 1.53 153 1.53 158 1.54  83 1.54
  86  0.416  0.084  0.416-  84 1.53  82 1.53  81 1.54  83 1.54
  87  0.417  0.250  0.583- 107 1.53 174 1.53  82 1.54 153 1.54
  88  0.583  0.250  0.417- 107 1.53 111 1.53  90 1.54  84 1.54
  89  0.667  0.001  0.333- 133 1.53  71 1.53  94 1.54  13 1.54
  90  0.667  0.167  0.500-  94 1.53  85 1.53  95 1.54  88 1.54
  91  0.835  0.002  0.500- 140 1.52  93 1.53 141 1.53  94 1.54
  92  0.833  0.167  0.333-  94 1.53  21 1.53  96 1.53  23 1.53
  93  0.918  0.084  0.583-  91 1.53  74 1.53 161 1.53 142 1.53
  94  0.750  0.084  0.417-  92 1.53  90 1.53  89 1.54  91 1.54
  95  0.752  0.249  0.584- 182 1.53 161 1.53 113 1.54  90 1.54
  96  0.917  0.250  0.417- 113 1.52  74 1.53  97 1.53  92 1.53
  97  0.999  0.334  0.333- 102 1.53  96 1.53  45 1.54   7 1.54
  98  0.000  0.500  0.500- 102 1.53 115 1.53 103 1.54 118 1.54
  99  0.165  0.332  0.500-  79 1.52  80 1.54 102 1.54 101 1.54
 100  0.165  0.500  0.331-  31 1.53 104 1.53 102 1.54  29 1.54
 101  0.249  0.416  0.583- 106 1.48 169 1.53 174 1.54  99 1.54
 102  0.083  0.417  0.416-  97 1.53  98 1.53 100 1.54  99 1.54
 103  0.084  0.584  0.583- 121 1.53 169 1.53 190 1.54  98 1.54
 104  0.248  0.583  0.415- 106 1.52 100 1.53 121 1.54 127 1.56 214 2.85
 105  0.330  0.330  0.330- 110 1.51  80 1.53  15 1.53  29 1.54
 106  0.325  0.491  0.492- 101 1.48 104 1.52 110 1.52 214 2.28
 107  0.500  0.331  0.500-  87 1.53  88 1.53 110 1.57 109 1.57
 108  0.492  0.491  0.325-  37 1.48  39 1.52 110 1.52 214 2.28
 109  0.587  0.411  0.587- 182 1.51 112 1.52 177 1.52 107 1.57 214 2.51
 110  0.413  0.411  0.413- 105 1.51 108 1.52 106 1.52 107 1.57 214 2.51
 111  0.666  0.333  0.334-  88 1.53  23 1.53  37 1.54 116 1.54
 112  0.675  0.491  0.508- 116 1.48 117 1.52 109 1.52 214 2.28
 113  0.835  0.332  0.500-  96 1.52  95 1.54 115 1.54 116 1.54
 114  0.833  0.500  0.334- 118 1.53 116 1.53  47 1.54  45 1.54
 115  0.917  0.417  0.584- 166 1.53  98 1.53 185 1.54 113 1.54
 116  0.751  0.416  0.417- 112 1.48 114 1.53 111 1.54 113 1.54
 117  0.752  0.583  0.585- 112 1.52 185 1.53 136 1.54 206 1.56 214 2.85
 118  0.916  0.584  0.417- 136 1.53 114 1.53 119 1.54  98 1.54
 119  0.999  0.667  0.333-  69 1.53 118 1.54  31 1.54 124 1.54
 120  1.000  0.834  0.500- 138 1.53 124 1.53 141 1.53 125 1.53
 121  0.166  0.667  0.500- 103 1.53 104 1.54 124 1.54 123 1.54
 122  0.166  0.834  0.333-  55 1.53 124 1.54  53 1.54 126 1.54
 123  0.251  0.750  0.583- 198 1.52 121 1.54 193 1.54 128 1.55
 124  0.083  0.750  0.416- 120 1.53 122 1.54 119 1.54 121 1.54
 125  0.083  0.917  0.583- 142 1.53 193 1.53 120 1.53  75 1.53
 126  0.248  0.920  0.416-  75 1.52 128 1.52  81 1.54 122 1.54
 127  0.330  0.669  0.330-  53 1.52 131 1.54 104 1.56  39 1.56 214 2.62
 128  0.331  0.838  0.499- 131 1.49 126 1.52 132 1.54 123 1.55
 129  0.499  0.838  0.331- 131 1.49  63 1.52 133 1.54  61 1.55
 130  0.594  0.765  0.594- 135 1.49 201 1.49 206 1.54 214 2.15
 131  0.406  0.765  0.406- 129 1.49 128 1.49 127 1.54 214 2.15
 132  0.417  0.919  0.583- 150 1.53  83 1.53 128 1.54 201 1.54
 133  0.583  0.919  0.417-  89 1.53  83 1.53 129 1.54 135 1.54
 134  0.667  0.669  0.333-  47 1.51 139 1.52  61 1.52 214 2.59
 135  0.669  0.838  0.501- 130 1.49 140 1.52 133 1.54 139 1.55
 136  0.834  0.667  0.500- 118 1.53 117 1.54 138 1.54 139 1.54
 137  0.833  0.834  0.334- 141 1.53  69 1.53  71 1.54 139 1.54
 138  0.917  0.750  0.584- 120 1.53 209 1.54 190 1.54 136 1.54
 139  0.749  0.750  0.417- 134 1.52 136 1.54 137 1.54 135 1.55
 140  0.752  0.920  0.584-  91 1.52 135 1.52 158 1.54 209 1.54
 141  0.917  0.917  0.417-  73 1.53 137 1.53 120 1.53  91 1.53
 142  0.000  0.000  0.667- 125 1.53  93 1.53 147 1.53 213 1.53
 143  0.000  0.167  0.833- 165 1.53 148 1.53 147 1.53 162 1.54
 144  0.167  0.000  0.833- 147 1.53 146 1.53 196 1.53 197 1.54
 145  0.167  0.167  0.667-  77 1.53 147 1.53  79 1.53 149 1.53
 146  0.250  0.084  0.916- 144 1.53   9 1.53 151 1.53   4 1.53
 147  0.084  0.084  0.750- 144 1.53 142 1.53 145 1.53 143 1.53
 148  0.083  0.250  0.917-   4 1.53 143 1.53  25 1.54 168 1.54
 149  0.250  0.250  0.750- 168 1.53 174 1.53 151 1.53 145 1.53
 150  0.333  0.001  0.667- 132 1.53 197 1.53  77 1.54 155 1.54
 151  0.333  0.167  0.833- 155 1.53 146 1.53 156 1.53 149 1.53
 152  0.500  0.002  0.835- 205 1.52 154 1.53 204 1.53 155 1.54
 153  0.500  0.167  0.667- 155 1.53  85 1.53 157 1.54  87 1.54
 154  0.583  0.084  0.918- 152 1.53  12 1.53 159 1.53  17 1.53
 155  0.417  0.084  0.750- 151 1.53 153 1.53 150 1.54 152 1.54
 156  0.417  0.250  0.917- 176 1.52  12 1.53  33 1.53 151 1.53
 157  0.584  0.249  0.752- 182 1.53 159 1.53 176 1.54 153 1.54
 158  0.667  0.001  0.667- 163 1.53  85 1.54 140 1.54 205 1.54
 159  0.667  0.166  0.835- 157 1.53 154 1.53 164 1.53 163 1.53
 160  0.834  0.000  0.834- 163 1.53 162 1.53 213 1.54 212 1.54
 161  0.835  0.166  0.667-  95 1.53  93 1.53 165 1.53 163 1.53
 162  0.917  0.084  0.917-   1 1.53 160 1.53  20 1.54 143 1.54
 163  0.751  0.084  0.751- 158 1.53 160 1.53 161 1.53 159 1.53
 164  0.750  0.250  0.917-  20 1.53 159 1.53  41 1.54 184 1.54
 165  0.917  0.250  0.750- 143 1.53 161 1.53 166 1.54 184 1.54
 166  0.001  0.334  0.667- 115 1.53  79 1.53 171 1.54 165 1.54
 167  0.001  0.500  0.834- 189 1.53 172 1.53 171 1.54 186 1.54
 168  0.167  0.334  0.833- 171 1.53 170 1.53 149 1.53 148 1.54
 169  0.167  0.500  0.666- 103 1.53 101 1.53 173 1.54 171 1.54
 170  0.250  0.417  0.916- 168 1.53  33 1.54  28 1.54 175 1.54
 171  0.084  0.417  0.750- 168 1.53 166 1.54 167 1.54 169 1.54
 172  0.084  0.584  0.916- 167 1.53  28 1.53 192 1.54  49 1.54
 173  0.252  0.584  0.748- 198 1.51 169 1.54 175 1.54 192 1.55
 174  0.334  0.333  0.666-  87 1.53 149 1.53 179 1.54 101 1.54
 175  0.334  0.500  0.833- 180 1.53 179 1.53 173 1.54 170 1.54
 176  0.500  0.332  0.835- 156 1.52 157 1.54 178 1.54 179 1.54
 177  0.508  0.491  0.675- 179 1.48 181 1.52 109 1.52 214 2.28
 178  0.584  0.417  0.917-  41 1.53  36 1.53 183 1.54 176 1.54
 179  0.417  0.416  0.751- 177 1.48 175 1.53 174 1.54 176 1.54
 180  0.417  0.584  0.916- 200 1.53 175 1.53  57 1.54  36 1.54
 181  0.585  0.583  0.752- 177 1.52 183 1.53 200 1.54 206 1.56 214 2.85
 182  0.670  0.330  0.670- 109 1.51 157 1.53  95 1.53 187 1.54
 183  0.669  0.500  0.835- 188 1.53 181 1.53 178 1.54 187 1.54
 184  0.834  0.333  0.834- 187 1.53 186 1.53 164 1.54 165 1.54
 185  0.835  0.500  0.669- 189 1.53 117 1.53 115 1.54 187 1.54
 186  0.917  0.417  0.917-  25 1.53 184 1.53 167 1.54  44 1.54
 187  0.751  0.416  0.751- 184 1.53 182 1.54 183 1.54 185 1.54
 188  0.751  0.584  0.918- 183 1.53  44 1.53  65 1.54 208 1.54
 189  0.918  0.584  0.751- 185 1.53 167 1.53 190 1.54 208 1.54
 190  0.001  0.667  0.667- 195 1.53 103 1.54 189 1.54 138 1.54
 191  0.000  0.834  0.833- 196 1.53 213 1.53 210 1.54 195 1.54
 192  0.167  0.667  0.833- 195 1.53 194 1.53 172 1.54 173 1.55
 193  0.167  0.834  0.666- 125 1.53 195 1.53 197 1.54 123 1.54
 194  0.250  0.750  0.916-  57 1.53 199 1.53 192 1.53  52 1.54
 195  0.084  0.750  0.750- 190 1.53 193 1.53 192 1.53 191 1.54
 196  0.083  0.917  0.917- 191 1.53  52 1.53 144 1.53   1 1.54
 197  0.250  0.917  0.750- 150 1.53 193 1.54 199 1.54 144 1.54
 198  0.333  0.669  0.667- 173 1.51 123 1.52 203 1.52 214 2.59
 199  0.334  0.834  0.833- 204 1.53 194 1.53 197 1.54 203 1.54
 200  0.500  0.667  0.834- 180 1.53 181 1.54 202 1.54 203 1.54
 201  0.501  0.838  0.669- 130 1.49 205 1.52 132 1.54 203 1.55
 202  0.584  0.750  0.917-  60 1.53 207 1.54  65 1.54 200 1.54
 203  0.417  0.750  0.749- 198 1.52 200 1.54 199 1.54 201 1.55
 204  0.417  0.917  0.917-   9 1.53 199 1.53  60 1.53 152 1.53
 205  0.584  0.920  0.752- 152 1.52 201 1.52 158 1.54 207 1.54
 206  0.670  0.669  0.670- 211 1.52 130 1.54 181 1.56 117 1.56 214 2.62
 207  0.667  0.834  0.834- 212 1.53 202 1.54 211 1.54 205 1.54
 208  0.835  0.667  0.835- 210 1.53 211 1.53 188 1.54 189 1.54
 209  0.834  0.834  0.667- 213 1.53 138 1.54 211 1.54 140 1.54
 210  0.917  0.750  0.917- 208 1.53  49 1.53  68 1.54 191 1.54
 211  0.752  0.751  0.752- 206 1.52 208 1.53 207 1.54 209 1.54
 212  0.750  0.917  0.917- 207 1.53  68 1.53  17 1.53 160 1.54
 213  0.917  0.917  0.750- 209 1.53 191 1.53 142 1.53 160 1.54
 214  0.500  0.613  0.500- 130 2.15 131 2.15 177 2.28 106 2.28 112 2.28 108 2.28 109 2.51 110 2.51
                           198 2.59 134 2.59 206 2.62 127 2.62 117 2.85  39 2.85 181 2.85 104 2.85
 

IMPORTANT INFORMATION: All symmetrisations will be switched off!
NOSYMM: (Re-)initialisation of all symmetry stuff for point group C_1.


----------------------------------------------------------------------------------------

                                     Primitive cell                                     

  volume of cell :    1202.8529

  direct lattice vectors                    reciprocal lattice vectors
    10.635000229  0.000000000  0.000000000     0.094029147  0.000000000  0.000000000
     0.000000000 10.635000229  0.000000000     0.000000000  0.094029147  0.000000000
     0.000000000  0.000000000 10.635000229     0.000000000  0.000000000  0.094029147

  length of vectors
    10.635000229 10.635000229 10.635000229     0.094029147  0.094029147  0.094029147

  position of ions in fractional coordinates (direct lattice)
     0.999998568  0.000224149  0.000001484
     0.999598939  0.166861200  0.166504914
     0.166201922  0.000183057  0.166203421
     0.166503412  0.166861094  0.999601825
     0.249238483  0.083755552  0.249238872
     0.083103181  0.083656235  0.083106103
     0.082645964  0.250211758  0.249612791
     0.249612719  0.250211900  0.082648514
     0.333150111  0.000321148  0.999543929
     0.332699234  0.166291529  0.165376355
     0.499776079  0.001525836  0.165298308
     0.500001654  0.166901872  0.000000777
     0.583286498  0.083909686  0.249621617
     0.416503816  0.083854896  0.082314147
     0.416036705  0.248768310  0.248337747
     0.583269195  0.249824139  0.082987285
     0.666851989  0.000321312  0.000458905
     0.666660505  0.167018866  0.166697070
     0.833169912  0.000277002  0.166830129
     0.833495162  0.166861196  0.000401098
     0.916350953  0.083616961  0.249964952
     0.750035059  0.083616945  0.083649111
     0.749844948  0.250314543  0.250155067
     0.916513268  0.250346287  0.083486819
     0.999998428  0.333540332  0.000001679
     0.999206437  0.500229401  0.166341785
     0.165664301  0.333271502  0.165666555
     0.166339802  0.500229114  0.999209428
     0.248526368  0.416363315  0.248527947
     0.082849428  0.416968906  0.082851935
     0.082046181  0.583692004  0.249001725
     0.249001087  0.583691993  0.082048412
     0.333107937  0.333502027  0.999424577
     0.331340034  0.499990382  0.164617883
     0.499645041  0.332152234  0.165237728
     0.500001220  0.500261891  0.999999982
     0.582834225  0.415673744  0.249442045
     0.416298045  0.416675574  0.082631940
     0.415383818  0.582744840  0.247761265
     0.583213554  0.583527574  0.083667148
     0.666893399  0.333502261  0.000577028
     0.666069899  0.500313939  0.167455184
     0.833038868  0.333686624  0.166961175
     0.833658284  0.500229371  0.000793685
     0.915966662  0.417088058  0.250153284
     0.749846711  0.417088038  0.084033481
     0.748100137  0.584086373  0.251899909
     0.916418444  0.583733675  0.083581641
     0.999997948  0.666982164  0.000002185
     0.999503605  0.833631088  0.166528429
     0.165211789  0.667123957  0.165213925
     0.166527272  0.833630846  0.999506558
     0.247636917  0.750811511  0.247638102
     0.082675908  0.750467145  0.082679363
     0.082631241  0.917135124  0.249607227
     0.249606615  0.917135591  0.082633943
     0.333201681  0.666944187  0.999413194
     0.332916679  0.834184918  0.165540666
     0.499834025  0.666945325  0.166375462
     0.500001861  0.833742414  0.000001390
     0.583048501  0.749998068  0.250614633
     0.416457524  0.750315256  0.082947477
     0.416488245  0.919603010  0.247511270
     0.583285249  0.917184782  0.083208070
     0.666799920  0.666944487  0.000588586
     0.666338246  0.833993555  0.166624512
     0.832879630  0.666687581  0.167120454
     0.833471616  0.833631120  0.000496471
     0.916103142  0.750318123  0.250170273
     0.749829705  0.750318114  0.083896986
     0.749745735  0.917011272  0.250254243
     0.916498984  0.917037575  0.083501070
     0.999541224  0.000321285  0.333147966
     0.999999440  0.166901943  0.499998202
     0.165296770  0.001525689  0.499772378
     0.165374777  0.166292129  0.332698063
     0.249622211  0.083909668  0.583283564
     0.082312364  0.083854444  0.416501225
     0.082986755  0.249825991  0.583265968
     0.248336820  0.248768755  0.416034885
     0.332558953  0.001354254  0.332557940
     0.332852183  0.166661951  0.499716049
     0.500000769  0.001146770  0.499999054
     0.499718499  0.166660699  0.332851043
     0.583678608  0.083930861  0.583676197
     0.416323635  0.083930785  0.416321282
     0.416539489  0.249682964  0.583460312
     0.583461759  0.249682118  0.416538175
     0.666760067  0.000869310  0.333239889
     0.667148883  0.166660741  0.500281359
     0.834701824  0.001525869  0.500223774
     0.833302973  0.167018888  0.333339392
     0.917686068  0.083854923  0.583496074
     0.750378367  0.083909711  0.416713352
     0.751662186  0.248768385  0.583963162
     0.917012856  0.249824146  0.416730688
     0.999423088  0.333502240  0.333106553
     0.000000039  0.500261869  0.499998655
     0.165239712  0.332156367  0.499642376
     0.164617255  0.499991052  0.331341312
     0.249444326  0.415678193  0.582830060
     0.082630259  0.416675947  0.416295380
     0.083666208  0.583527162  0.583210040
     0.247759529  0.582745638  0.415381587
     0.330182674  0.329569895  0.330183808
     0.324527928  0.490544372  0.492234347
     0.499999853  0.331414673  0.500000048
     0.492232766  0.490541302  0.324527163
     0.587381211  0.411357054  0.587380512
     0.412619453  0.411357052  0.412618773
     0.666397381  0.333274052  0.333602637
     0.675472951  0.490541157  0.507767253
     0.834762357  0.332152270  0.500354863
     0.832544924  0.500313900  0.333930129
     0.917368166  0.416675542  0.583701768
     0.750557999  0.415673714  0.417165796
     0.752238814  0.582744734  0.584616027
     0.916333017  0.583527514  0.416786333
     0.999411514  0.666944430  0.333200048
     0.999998772  0.833742419  0.499997998
     0.166375814  0.666944276  0.499832420
     0.165538864  0.834184798  0.332915110
     0.250613341  0.749997852  0.583046962
     0.082947079  0.750314414  0.416455714
     0.083206897  0.917183947  0.583282332
     0.247511731  0.919601021  0.416487287
     0.330228044  0.668687655  0.330228801
     0.330752769  0.837518914  0.499160145
     0.499159473  0.837518577  0.330754814
     0.593774844  0.765423719  0.593770933
     0.406229073  0.765423504  0.406225205
     0.416651045  0.918501226  0.583348809
     0.583351657  0.918502523  0.416648204
     0.667314208  0.668718917  0.332685931
     0.669245133  0.837518527  0.500840472
     0.833624667  0.666945357  0.500165873
     0.833375677  0.833993669  0.333661634
     0.917052716  0.750315250  0.583542365
     0.749385552  0.749998150  0.416951449
     0.752488809  0.919603077  0.583511676
     0.916792103  0.917184809  0.416714650
     0.000456223  0.000321132  0.666849795
     0.000398249  0.166861081  0.833496597
     0.166829343  0.000276586  0.833170602
     0.166696747  0.167020378  0.666658241
     0.249964949  0.083617829  0.916353060
     0.083646989  0.083617819  0.750034996
     0.083484589  0.250346551  0.916515455
     0.250156888  0.250318082  0.749843065
     0.333241505  0.000868808  0.666758365
     0.333341603  0.167020400  0.833303223
     0.500227491  0.001525655  0.834703207
     0.500283843  0.166662029  0.667147734
     0.583498701  0.083854417  0.917687738
     0.416716299  0.083909704  0.750377710
     0.416733867  0.249825998  0.917013299
     0.583965052  0.248768750  0.751663136
     0.667442038  0.001354277  0.667440981
     0.667301941  0.166292143  0.834625221
     0.833796651  0.000183068  0.833798104
     0.834623780  0.166291562  0.667300672
     0.916893966  0.083656224  0.916896880
     0.750761167  0.083755564  0.750761478
     0.750387237  0.250211787  0.917354097
     0.917351618  0.250211925  0.750387244
     0.000575553  0.333502071  0.666891894
     0.000790682  0.500229140  0.833660169
     0.166960375  0.333686838  0.833039567
     0.167457018  0.500315467  0.666066948
     0.250154812  0.417088841  0.915966883
     0.084033159  0.417088901  0.749845101
     0.083578547  0.583733634  0.916421459
     0.251899079  0.584086643  0.748100915
     0.333606547  0.333280249  0.666393505
     0.333933040  0.500315394  0.832542940
     0.500357590  0.332156327  0.834760294
     0.507765538  0.490544314  0.675472020
     0.583704562  0.416675900  0.917369813
     0.417169928  0.415678195  0.750555647
     0.416789841  0.583527191  0.916333864
     0.584618361  0.582745526  0.752240474
     0.669816151  0.329569961  0.669817179
     0.668658630  0.499991033  0.835382717
     0.834333492  0.333271511  0.834335663
     0.835382177  0.499990338  0.668659838
     0.917148160  0.416968908  0.917150599
     0.751472031  0.416363332  0.751473533
     0.750998247  0.583691983  0.917953836
     0.917951745  0.583692015  0.750998814
     0.000586928  0.666944206  0.666798258
     0.000493559  0.833630839  0.833472710
     0.167118875  0.666686827  0.832881112
     0.166623937  0.833991992  0.666335716
     0.250170147  0.750318084  0.916105737
     0.083894306  0.750318072  0.749829787
     0.083497837  0.917038034  0.916502199
     0.250254670  0.917010722  0.749745240
     0.332686890  0.668715357  0.667313110
     0.333664165  0.833992049  0.833376091
     0.500167502  0.666944206  0.833624194
     0.500839618  0.837518914  0.669247187
     0.583544218  0.750314372  0.917052985
     0.416952935  0.749997915  0.749386722
     0.416717541  0.917183972  0.916793191
     0.583512623  0.919601075  0.752488220
     0.669771172  0.668687493  0.669771905
     0.667084874  0.834184867  0.834461179
     0.834786182  0.667123971  0.834788242
     0.834459452  0.834184921  0.667083236
     0.917320786  0.750467161  0.917324146
     0.752361932  0.750811500  0.752363063
     0.750392821  0.917135132  0.917368818
     0.917366210  0.917135622  0.750393389
     0.499998936  0.612806269  0.500001504

  ion indices of the primitive-cell ions
   primitive index   ion index
                 1           1
                 2           2
                 3           3
                 4           4
                 5           5
                 6           6
                 7           7
                 8           8
                 9           9
                10          10
                11          11
                12          12
                13          13
                14          14
                15          15
                16          16
                17          17
                18          18
                19          19
                20          20
                21          21
                22          22
                23          23
                24          24
                25          25
                26          26
                27          27
                28          28
                29          29
                30          30
                31          31
                32          32
                33          33
                34          34
                35          35
                36          36
                37          37
                38          38
                39          39
                40          40
                41          41
                42          42
                43          43
                44          44
                45          45
                46          46
                47          47
                48          48
                49          49
                50          50
                51          51
                52          52
                53          53
                54          54
                55          55
                56          56
                57          57
                58          58
                59          59
                60          60
                61          61
                62          62
                63          63
                64          64
                65          65
                66          66
                67          67
                68          68
                69          69
                70          70
                71          71
                72          72
                73          73
                74          74
                75          75
                76          76
                77          77
                78          78
                79          79
                80          80
                81          81
                82          82
                83          83
                84          84
                85          85
                86          86
                87          87
                88          88
                89          89
                90          90
                91          91
                92          92
                93          93
                94          94
                95          95
                96          96
                97          97
                98          98
                99          99
               100         100
               101         101
               102         102
               103         103
               104         104
               105         105
               106         106
               107         107
               108         108
               109         109
               110         110
               111         111
               112         112
               113         113
               114         114
               115         115
               116         116
               117         117
               118         118
               119         119
               120         120
               121         121
               122         122
               123         123
               124         124
               125         125
               126         126
               127         127
               128         128
               129         129
               130         130
               131         131
               132         132
               133         133
               134         134
               135         135
               136         136
               137         137
               138         138
               139         139
               140         140
               141         141
               142         142
               143         143
               144         144
               145         145
               146         146
               147         147
               148         148
               149         149
               150         150
               151         151
               152         152
               153         153
               154         154
               155         155
               156         156
               157         157
               158         158
               159         159
               160         160
               161         161
               162         162
               163         163
               164         164
               165         165
               166         166
               167         167
               168         168
               169         169
               170         170
               171         171
               172         172
               173         173
               174         174
               175         175
               176         176
               177         177
               178         178
               179         179
               180         180
               181         181
               182         182
               183         183
               184         184
               185         185
               186         186
               187         187
               188         188
               189         189
               190         190
               191         191
               192         192
               193         193
               194         194
               195         195
               196         196
               197         197
               198         198
               199         199
               200         200
               201         201
               202         202
               203         203
               204         204
               205         205
               206         206
               207         207
               208         208
               209         209
               210         210
               211         211
               212         212
               213         213
               214         214

----------------------------------------------------------------------------------------

 
 
 KPOINTS: 1 x 1 x 1 k-mesh (automatic generation o

Automatic generation of k-mesh.
 Grid dimensions read from file:
 generate k-points for:    1    1    1

 Generating k-lattice:

  Cartesian coordinates                     Fractional coordinates (reciprocal lattice)
     0.094029147  0.000000000  0.000000000     1.000000000  0.000000000  0.000000000
     0.000000000  0.094029147  0.000000000     0.000000000  1.000000000  0.000000000
     0.000000000  0.000000000  0.094029147     0.000000000  0.000000000  1.000000000

  Length of vectors
     0.094029147  0.094029147  0.094029147

  Shift w.r.t. Gamma in fractional coordinates (k-lattice)
     0.000000000  0.000000000  0.000000000

 
 Subroutine IBZKPT returns following result:
 ===========================================
 
 Found      1 irreducible k-points:
 
 Following reciprocal coordinates:
            Coordinates               Weight
  0.000000  0.000000  0.000000      1.000000
 
 Following cartesian coordinates:
            Coordinates               Weight
  0.000000  0.000000  0.000000      1.000000
 
 
 Subroutine IBZKPT_HF returns following result:
 ==============================================
 
 Found      1 k-points in 1st BZ
 the following      1 k-points will be used (e.g. in the exchange kernel)
 Following reciprocal coordinates:   # in IRBZ
  0.000000  0.000000  0.000000    1.00000000   1 t-inv F


--------------------------------------------------------------------------------------------------------




 Dimension of arrays:
   k-points           NKPTS =      1   k-points in BZ     NKDIM =      1   number of bands    NBANDS=    648
   number of dos      NEDOS =    301   number of ions     NIONS =    214
   non local maximal  LDIM  =      8   non local SUM 2l+1 LMDIM =     32
   total plane-waves  NPLWV = 884736
   max r-space proj   IRMAX =      1   max aug-charges    IRDMAX=  43738
   dimension x,y,z NGX =    96 NGY =   96 NGZ =   96
   dimension x,y,z NGXF=   192 NGYF=  192 NGZF=  192
   support grid    NGXF=   192 NGYF=  192 NGZF=  192
   ions per type =             213   1
   NGX,Y,Z   is equivalent  to a cutoff of  15.01, 15.01, 15.01 a.u.
   NGXF,Y,Z  is equivalent  to a cutoff of  30.01, 30.01, 30.01 a.u.

 SYSTEM =  unknown system                          
 POSCAR =  prv2                                    

 Startparameter for this run:
   NWRITE =      2    write-flag & timer
   PREC   = accura    normal or accurate (medium, high low for compatibility)
   ISTART =      1    job   : 0-new  1-cont  2-samecut
   ICHARG =      0    charge: 1-file 2-atom 10-const
   ISPIN  =      2    spin polarized calculation?
   LNONCOLLINEAR =      F non collinear calculations
   LSORBIT =      F    spin-orbit coupling
   INIWAV =      1    electr: 0-lowe 1-rand  2-diag
   LASPH  =      F    aspherical Exc in radial PAW
 Electronic Relaxation 1
   ENCUT  =  700.0 eV  51.45 Ry    7.17 a.u.  22.94 22.94 22.94*2*pi/ulx,y,z
   ENINI  =  700.0     initial cutoff
   ENAUG  = 1400.0 eV  augmentation charge cutoff
   NELM   =     60;   NELMIN=  2; NELMDL=  0     # of ELM steps 
   EDIFF  = 0.1E-05   stopping-criterion for ELM
   LREAL  =      F    real-space projection
   NLSPLINE    = F    spline interpolate recip. space projectors
   LCOMPAT=      F    compatible to vasp.4.4
   GGA_COMPAT  = T    GGA compatible to vasp.4.4-vasp.4.6
   LMAXPAW     = -100 max onsite density
   LMAXMIX     =    2 max onsite mixed and CHGCAR
   VOSKOWN=      0    Vosko Wilk Nusair interpolation
   ROPT   =    0.00000   0.00000
 Ionic relaxation
   EDIFFG = -.1E-01   stopping-criterion for IOM
   NSW    =      0    number of steps for IOM
   NBLOCK =      1;   KBLOCK =      1    inner block; outer block 
   IBRION =     -1    ionic relax: 0-MD 1-quasi-New 2-CG
   NFREE  =      1    steps in history (QN), initial steepest desc. (CG)
   ISIF   =      1    stress and relaxation
   IWAVPR =     10    prediction:  0-non 1-charg 2-wave 3-comb
   ISYM   =      0    0-nonsym 1-usesym 2-fastsym
   LCORR  =      T    Harris-Foulkes like correction to forces

   POTIM  = 0.2000    time-step for ionic-motion
   TEIN   =    0.0    initial temperature
   TEBEG  =    0.0;   TEEND  =   0.0 temperature during run
   SMASS  =  -3.00    Nose mass-parameter (am)
   estimated Nose-frequenzy (Omega)   =  0.10E-29 period in steps = 0.31E+47 mass=  -0.258E-26a.u.
   SCALEE = 1.0000    scale energy and forces
   NPACO  =    256;   APACO  = 16.0  distance and # of slots for P.C.
   PSTRESS=    0.0 pullay stress

  Mass of Ions in am
   POMASS =  12.01229.00
  Ionic Valenz
   ZVAL   =   4.00 13.00
  Atomic Wigner-Seitz radii
   RWIGS  =  -1.00 -1.00
  virtual crystal weights 
   VCA    =   1.00  1.00
   NELECT =     867.0000    total number of electrons
   NUPDOWN=      -1.0000    fix difference up-down

 DOS related values:
   EMIN   =  10.00;   EMAX   =-10.00  energy-range for DOS
   EFERMI =   0.00
   ISMEAR =     0;   SIGMA  =   0.01  broadening in eV -4-tet -1-fermi 0-gaus

 Electronic relaxation 2 (details)
   IALGO  =     58    algorithm
   LDIAG  =      T    sub-space diagonalisation (order eigenvalues)
   LSUBROT=      F    optimize rotation matrix (better conditioning)
   TURBO    =      0    0=normal 1=particle mesh
   IRESTART =      0    0=no restart 2=restart with 2 vectors
   NREBOOT  =      0    no. of reboots
   NMIN     =      0    reboot dimension
   EREF     =   0.00    reference energy to select bands
   IMIX   =      4    mixing-type and parameters
     AMIX     =   0.40;   BMIX     =  1.00
     AMIX_MAG =   1.60;   BMIX_MAG =  1.00
     AMIN     =   0.10
     WC   =   100.;   INIMIX=   1;  MIXPRE=   1;  MAXMIX= -45

 Intra band minimization:
   WEIMIN = 0.0000     energy-eigenvalue tresh-hold
   EBREAK =  0.39E-09  absolut break condition
   DEPER  =   0.30     relativ break condition  

   TIME   =   0.40     timestep for ELM

  volume/ion in A,a.u.               =       5.62        37.93
  Fermi-wavevector in a.u.,A,eV,Ry     =   1.467834  2.773805 29.314262  2.154537
  Thomas-Fermi vector in A             =   2.583404
 
 Write flags
   LWAVE        =      T    write WAVECAR
   LDOWNSAMPLE  =      F    k-point downsampling of WAVECAR
   LCHARG       =      T    write CHGCAR
   LVTOT        =      F    write LOCPOT, total local potential
   LVHAR        =      F    write LOCPOT, Hartree potential only
   LELF         =      F    write electronic localiz. function (ELF)
   LORBIT       =      0    0 simple, 1 ext, 2 COOP (PROOUT), +10 PAW based schemes


 Dipole corrections
   LMONO  =      F    monopole corrections only (constant potential shift)
   LDIPOL =      F    correct potential (dipole corrections)
   IDIPOL =      0    1-x, 2-y, 3-z, 4-all directions 
   EPSILON=  1.0000000 bulk dielectric constant

 Exchange correlation treatment:
   GGA     =    PE    GGA type
   LEXCH   =     8    internal setting for exchange type
   VOSKOWN=      0    Vosko Wilk Nusair interpolation
   EXXOEP  =     0    0=HF, 1=EXX-LHF (local Hartree Fock) 2=EXX OEP
   LHFCALC =     T    Hartree Fock is set to
   LSYMGRAD=     F    symmetrize gradient (conserves proper symmetry)
   PRECFOCK=normal    Normal, Fast or Accurate (Low or Medium for compatibility)
   LRHFCALC=     F    long range Hartree Fock
   LRSCOR  =     F    long range correlation only (use DFT for short range part)
   LTHOMAS =     F    Thomas Fermi screening in HF
   LMODELHF=     F    short range full HF, long range fraction AEXX
   LFOCKACE=     T    use Adeptively-Compressed-Exchange operator
   ENCUT4O =  -1.0   cutoff for four orbital integrals eV
   LMAXFOCK=     4    L truncation for augmentation on plane wave grid
   LMAXFOCKAE=  -1    L truncation for all-electron charge restoration on plane wave grid
   NMAXFOCKAE=   1    number of basis functions for all-electron charge restoration
   LFOCKAEDFT=     F  apply the AE augmentation even for DFT
   NKREDX  =     1    reduce k-point grid by
   NKREDY  =     1    reduce k-point grid by
   NKREDZ  =     1    reduce k-point grid by
   SHIFTRED=     F    shift reduced grid of Gamma
   HFKIDENT=     F    idential grid for each k-point
   ODDONLY =     F    use only odd q-grid points
   EVENONLY=     F    use only even q-grid points
   HFALPHA =   -1.0000 decay constant for conv. correction
   MCALPHA =    0.0000 extent of test-charge in conv. correction in multipole expansion
   AEXX    =    0.2500 exact exchange contribution
   HFSCREEN=    0.2000 screening length (either q_TF or 0.3 A-1)
   HFSCREENC=   0.2000 screening length for correlation (either q_TF or 0.3 A-1)
   HFRCUT  =    0.0000 spherical cutoff for potential kernel
   ALDAX   =    0.7500 LDA exchange part
   AGGAX   =    0.7500 GGA exchange part
   ALDAC   =    1.0000 LDA correlation
   AGGAC   =    1.0000 GGA correlation
   ENCUTFOCK=  -1.0 apply spherical cutoff to Coloumb kernel
   NBANDSGWLOW=     1    first orbital included in HF term
   NBLOCK_FOCK=    64    blocking factor in FOCK_ACC
 Linear response parameters
   LEPSILON=     F    determine dielectric tensor
   LRPA    =     F    only Hartree local field effects (RPA)
   LNABLA  =     F    use nabla operator in PAW spheres
   LVEL    =     F    velocity operator in full k-point grid
   LINTERFAST=   F  fast interpolation
   KINTER  =     0    interpolate to denser k-point grid
   CSHIFT  =0.1000    complex shift for real part using Kramers Kronig
   OMEGAMAX=  -1.0    maximum frequency
   DEG_THRESHOLD= 0.2000000E-02 threshold for treating states as degnerate
   RTIME   =   -0.100 relaxation time in fs
  (WPLASMAI=    0.000 imaginary part of plasma frequency in eV, 0.658/RTIME)
   DFIELD  = 0.0000000 0.0000000 0.0000000 field for delta impulse in time
 
 Orbital magnetization related:
   ORBITALMAG=     F  switch on orbital magnetization
   LCHIMAG   =     F  perturbation theory with respect to B field
   DQ        =  0.001000  dq finite difference perturbation B field
   LLRAUG    =     F  two centre corrections for induced B field



--------------------------------------------------------------------------------------------------------


 Static calculation
 charge density and potential will be updated during run
 spin polarized calculation
 Conjugate gradient for all bands (Freysoldt, et al. PRB 79, 241103 (2009))
 preconditioned conjugated gradient                                        
 perform sub-space diagonalisation
    before iterative eigenvector-optimisation
 modified Broyden-mixing scheme, WC =      100.0
 initial mixing is a Kerker type mixing with AMIX =  0.4000 and BMIX =      1.0000
 Hartree-type preconditioning will be used
 using additional bands          214
 reciprocal scheme for non local part
 use partial core corrections
 no Harris-corrections to forces 
 use gradient corrections 
 use of overlap-Matrix (Vanderbilt PP)
 Gauss-broadening in eV      SIGMA  =   0.01


--------------------------------------------------------------------------------------------------------


  energy-cutoff  :      700.00
  volume of cell :     1202.85
      direct lattice vectors                 reciprocal lattice vectors
    10.635000229  0.000000000  0.000000000     0.094029147  0.000000000  0.000000000
     0.000000000 10.635000229  0.000000000     0.000000000  0.094029147  0.000000000
     0.000000000  0.000000000 10.635000229     0.000000000  0.000000000  0.094029147

  length of vectors
    10.635000229 10.635000229 10.635000229     0.094029147  0.094029147  0.094029147


 
 old parameters found on file WAVECAR:
  energy-cutoff  :      700.00
  volume of cell :     1202.85
      direct lattice vectors                 reciprocal lattice vectors
    10.635000229  0.000000000  0.000000000     0.094029147  0.000000000  0.000000000
     0.000000000 10.635000229  0.000000000     0.000000000  0.094029147  0.000000000
     0.000000000  0.000000000 10.635000229     0.000000000  0.000000000  0.094029147

  length of vectors

 
 k-points in units of 2pi/SCALE and weight: 1 x 1 x 1 k-mesh (automatic generation o
   0.00000000  0.00000000  0.00000000       1.000
 
 k-points in reciprocal lattice and weights: 1 x 1 x 1 k-mesh (automatic generation o
   0.00000000  0.00000000  0.00000000       1.000
 
 position of ions in fractional coordinates (direct lattice) 
   0.99999857  0.00022415  0.00000148
   0.99959894  0.16686120  0.16650491
   0.16620192  0.00018306  0.16620342
   0.16650341  0.16686109  0.99960183
   0.24923848  0.08375555  0.24923887
   0.08310318  0.08365624  0.08310610
   0.08264596  0.25021176  0.24961279
   0.24961272  0.25021190  0.08264851
   0.33315011  0.00032115  0.99954393
   0.33269923  0.16629153  0.16537635
   0.49977608  0.00152584  0.16529831
   0.50000165  0.16690187  0.00000078
   0.58328650  0.08390969  0.24962162
   0.41650382  0.08385490  0.08231415
   0.41603670  0.24876831  0.24833775
   0.58326920  0.24982414  0.08298728
   0.66685199  0.00032131  0.00045890
   0.66666050  0.16701887  0.16669707
   0.83316991  0.00027700  0.16683013
   0.83349516  0.16686120  0.00040110
   0.91635095  0.08361696  0.24996495
   0.75003506  0.08361695  0.08364911
   0.74984495  0.25031454  0.25015507
   0.91651327  0.25034629  0.08348682
   0.99999843  0.33354033  0.00000168
   0.99920644  0.50022940  0.16634178
   0.16566430  0.33327150  0.16566656
   0.16633980  0.50022911  0.99920943
   0.24852637  0.41636332  0.24852795
   0.08284943  0.41696891  0.08285193
   0.08204618  0.58369200  0.24900172
   0.24900109  0.58369199  0.08204841
   0.33310794  0.33350203  0.99942458
   0.33134003  0.49999038  0.16461788
   0.49964504  0.33215223  0.16523773
   0.50000122  0.50026189  0.99999998
   0.58283422  0.41567374  0.24944205
   0.41629804  0.41667557  0.08263194
   0.41538382  0.58274484  0.24776127
   0.58321355  0.58352757  0.08366715
   0.66689340  0.33350226  0.00057703
   0.66606990  0.50031394  0.16745518
   0.83303887  0.33368662  0.16696117
   0.83365828  0.50022937  0.00079369
   0.91596666  0.41708806  0.25015328
   0.74984671  0.41708804  0.08403348
   0.74810014  0.58408637  0.25189991
   0.91641844  0.58373367  0.08358164
   0.99999795  0.66698216  0.00000219
   0.99950361  0.83363109  0.16652843
   0.16521179  0.66712396  0.16521393
   0.16652727  0.83363085  0.99950656
   0.24763692  0.75081151  0.24763810
   0.08267591  0.75046715  0.08267936
   0.08263124  0.91713512  0.24960723
   0.24960661  0.91713559  0.08263394
   0.33320168  0.66694419  0.99941319
   0.33291668  0.83418492  0.16554067
   0.49983403  0.66694533  0.16637546
   0.50000186  0.83374241  0.00000139
   0.58304850  0.74999807  0.25061463
   0.41645752  0.75031526  0.08294748
   0.41648825  0.91960301  0.24751127
   0.58328525  0.91718478  0.08320807
   0.66679992  0.66694449  0.00058859
   0.66633825  0.83399356  0.16662451
   0.83287963  0.66668758  0.16712045
   0.83347162  0.83363112  0.00049647
   0.91610314  0.75031812  0.25017027
   0.74982971  0.75031811  0.08389699
   0.74974574  0.91701127  0.25025424
   0.91649898  0.91703758  0.08350107
   0.99954122  0.00032129  0.33314797
   0.99999944  0.16690194  0.49999820
   0.16529677  0.00152569  0.49977238
   0.16537478  0.16629213  0.33269806
   0.24962221  0.08390967  0.58328356
   0.08231236  0.08385444  0.41650122
   0.08298676  0.24982599  0.58326597
   0.24833682  0.24876876  0.41603488
   0.33255895  0.00135425  0.33255794
   0.33285218  0.16666195  0.49971605
   0.50000077  0.00114677  0.49999905
   0.49971850  0.16666070  0.33285104
   0.58367861  0.08393086  0.58367620
   0.41632363  0.08393078  0.41632128
   0.41653949  0.24968296  0.58346031
   0.58346176  0.24968212  0.41653818
   0.66676007  0.00086931  0.33323989
   0.66714888  0.16666074  0.50028136
   0.83470182  0.00152587  0.50022377
   0.83330297  0.16701889  0.33333939
   0.91768607  0.08385492  0.58349607
   0.75037837  0.08390971  0.41671335
   0.75166219  0.24876839  0.58396316
   0.91701286  0.24982415  0.41673069
   0.99942309  0.33350224  0.33310655
   0.00000004  0.50026187  0.49999866
   0.16523971  0.33215637  0.49964238
   0.16461725  0.49999105  0.33134131
   0.24944433  0.41567819  0.58283006
   0.08263026  0.41667595  0.41629538
   0.08366621  0.58352716  0.58321004
   0.24775953  0.58274564  0.41538159
   0.33018267  0.32956989  0.33018381
   0.32452793  0.49054437  0.49223435
   0.49999985  0.33141467  0.50000005
   0.49223277  0.49054130  0.32452716
   0.58738121  0.41135705  0.58738051
   0.41261945  0.41135705  0.41261877
   0.66639738  0.33327405  0.33360264
   0.67547295  0.49054116  0.50776725
   0.83476236  0.33215227  0.50035486
   0.83254492  0.50031390  0.33393013
   0.91736817  0.41667554  0.58370177
   0.75055800  0.41567371  0.41716580
   0.75223881  0.58274473  0.58461603
   0.91633302  0.58352751  0.41678633
   0.99941151  0.66694443  0.33320005
   0.99999877  0.83374242  0.49999800
   0.16637581  0.66694428  0.49983242
   0.16553886  0.83418480  0.33291511
   0.25061334  0.74999785  0.58304696
   0.08294708  0.75031441  0.41645571
   0.08320690  0.91718395  0.58328233
   0.24751173  0.91960102  0.41648729
   0.33022804  0.66868765  0.33022880
   0.33075277  0.83751891  0.49916015
   0.49915947  0.83751858  0.33075481
   0.59377484  0.76542372  0.59377093
   0.40622907  0.76542350  0.40622520
   0.41665104  0.91850123  0.58334881
   0.58335166  0.91850252  0.41664820
   0.66731421  0.66871892  0.33268593
   0.66924513  0.83751853  0.50084047
   0.83362467  0.66694536  0.50016587
   0.83337568  0.83399367  0.33366163
   0.91705272  0.75031525  0.58354237
   0.74938555  0.74999815  0.41695145
   0.75248881  0.91960308  0.58351168
   0.91679210  0.91718481  0.41671465
   0.00045622  0.00032113  0.66684980
   0.00039825  0.16686108  0.83349660
   0.16682934  0.00027659  0.83317060
   0.16669675  0.16702038  0.66665824
   0.24996495  0.08361783  0.91635306
   0.08364699  0.08361782  0.75003500
   0.08348459  0.25034655  0.91651546
   0.25015689  0.25031808  0.74984307
   0.33324150  0.00086881  0.66675836
   0.33334160  0.16702040  0.83330322
   0.50022749  0.00152565  0.83470321
   0.50028384  0.16666203  0.66714773
   0.58349870  0.08385442  0.91768774
   0.41671630  0.08390970  0.75037771
   0.41673387  0.24982600  0.91701330
   0.58396505  0.24876875  0.75166314
   0.66744204  0.00135428  0.66744098
   0.66730194  0.16629214  0.83462522
   0.83379665  0.00018307  0.83379810
   0.83462378  0.16629156  0.66730067
   0.91689397  0.08365622  0.91689688
   0.75076117  0.08375556  0.75076148
   0.75038724  0.25021179  0.91735410
   0.91735162  0.25021192  0.75038724
   0.00057555  0.33350207  0.66689189
   0.00079068  0.50022914  0.83366017
   0.16696038  0.33368684  0.83303957
   0.16745702  0.50031547  0.66606695
   0.25015481  0.41708884  0.91596688
   0.08403316  0.41708890  0.74984510
   0.08357855  0.58373363  0.91642146
   0.25189908  0.58408664  0.74810092
   0.33360655  0.33328025  0.66639351
   0.33393304  0.50031539  0.83254294
   0.50035759  0.33215633  0.83476029
   0.50776554  0.49054431  0.67547202
   0.58370456  0.41667590  0.91736981
   0.41716993  0.41567819  0.75055565
   0.41678984  0.58352719  0.91633386
   0.58461836  0.58274553  0.75224047
   0.66981615  0.32956996  0.66981718
   0.66865863  0.49999103  0.83538272
   0.83433349  0.33327151  0.83433566
   0.83538218  0.49999034  0.66865984
   0.91714816  0.41696891  0.91715060
   0.75147203  0.41636333  0.75147353
   0.75099825  0.58369198  0.91795384
   0.91795174  0.58369202  0.75099881
   0.00058693  0.66694421  0.66679826
   0.00049356  0.83363084  0.83347271
   0.16711888  0.66668683  0.83288111
   0.16662394  0.83399199  0.66633572
   0.25017015  0.75031808  0.91610574
   0.08389431  0.75031807  0.74982979
   0.08349784  0.91703803  0.91650220
   0.25025467  0.91701072  0.74974524
   0.33268689  0.66871536  0.66731311
   0.33366416  0.83399205  0.83337609
   0.50016750  0.66694421  0.83362419
   0.50083962  0.83751891  0.66924719
   0.58354422  0.75031437  0.91705299
   0.41695294  0.74999792  0.74938672
   0.41671754  0.91718397  0.91679319
   0.58351262  0.91960108  0.75248822
   0.66977117  0.66868749  0.66977191
   0.66708487  0.83418487  0.83446118
   0.83478618  0.66712397  0.83478824
   0.83445945  0.83418492  0.66708324
   0.91732079  0.75046716  0.91732415
   0.75236193  0.75081150  0.75236306
   0.75039282  0.91713513  0.91736882
   0.91736621  0.91713562  0.75039339
   0.49999894  0.61280627  0.50000150
 
 position of ions in cartesian coordinates  (Angst):
  10.63498500  0.00238382  0.00001578
  10.63073494  1.77456890  1.77077979
   1.76755748  0.00194681  1.76757342
   1.77076382  1.77456778 10.63076564
   2.65065132  0.89074031  2.65065547
   0.88380235  0.88968408  0.88383342
   0.87893985  2.66100210  2.65463209
   2.65463132  2.66100361  0.87896696
   3.54305151  0.00341540 10.63014991
   3.53825643  1.76851045  1.75877757
   5.31511871  0.01622727  1.75794754
   5.31751771  1.77500145  0.00000826
   6.20325204  0.89237953  2.65472596
   4.42951817  0.89179684  0.87541097
   4.42455045  2.64565103  2.64107200
   6.20306802  2.65687978  0.88256979
   7.09197105  0.00341715  0.00488045
   7.08993462  1.77624567  1.77282338
   8.86076220  0.00294591  1.77423846
   8.86422124  1.77456886  0.00426568
   9.74539259  0.88926639  2.65837732
   7.97662302  0.88926623  0.88960832
   7.97460119  2.66209522  2.66039919
   9.74711881  2.66243282  0.88788234
  10.63498351  3.54720151  0.00001786
  10.62656069  5.31993980  1.76904492
   1.76183987  3.54434250  1.76186386
   1.76902383  5.31993675 10.62659249
   2.64307798  4.42802395  2.64309477
   0.88110368  4.43446441  0.88113034
   0.87256116  6.20756459  2.64813340
   2.64812662  6.20756447  0.87258488
   3.54260299  3.54679414 10.62888061
   3.52380134  5.31739782  1.75071122
   5.31372512  3.53243909  1.75730327
   5.31751308  5.32028533 10.63500004
   6.19844211  4.42069036  2.65281621
   4.42732980  4.43134483  0.87879070
   4.41760700  6.19749151  2.63494111
   6.20247628  6.20581588  0.88980013
   7.09241145  3.54679662  0.00613670
   7.08365353  5.32083885  1.78088592
   8.85936855  3.54875732  1.77563213
   8.86595604  5.31993948  0.00844084
   9.74130566  4.43573159  2.66038023
   7.97461994  4.43573138  0.89369608
   7.95604513  6.21175871  2.67895559
   9.74611036  6.20800777  0.88889077
  10.63497840  7.09335547  0.00002324
  10.62972107  8.86566681  1.77102988
   1.75702741  7.09486343  1.75705013
   1.77101758  8.86566424 10.62975247
   2.63361867  7.98488060  2.63363128
   0.87925830  7.98121826  0.87929505
   0.87878327  9.75373226  2.65457291
   2.65456641  9.75373722  0.87881200
   3.54359995  7.09295158 10.62875955
   3.54056896  8.87155679  1.76052502
   5.31573497  7.09296369  1.76940308
   5.31751991  8.86685076  0.00001478
   6.20072094  7.97622962  2.66528668
   4.42902586  7.97960292  0.88214643
   4.42935258  9.77997822  2.63228241
   6.20323875  9.75426036  0.88491785
   7.09141731  7.09295477  0.00625962
   7.08650740  8.86952165  1.77205172
   8.85767506  7.09022258  1.77732606
   8.86397083  8.86566715  0.00527997
   9.74275713  7.97963341  2.66056091
   7.97443909  7.97963332  0.89224446
   7.97354606  9.75241509  2.66145393
   9.74696691  9.75269482  0.88803389
  10.63012114  0.00341687  3.54302869
  10.63499427  1.77500220  5.31748100
   1.75793119  0.01622570  5.31507935
   1.75876079  1.76851683  3.53824398
   2.65473228  0.89237934  6.20322084
   0.87539201  0.89179203  4.42949062
   0.88256416  2.65689947  6.20303370
   2.64106213  2.64565577  4.42453110
   3.53676454  0.01440249  3.53675377
   3.53988305  1.77244988  5.31448029
   5.31750829  0.01219590  5.31749006
   5.31450636  1.77243657  3.53987092
   6.20742212  0.89260473  6.20739649
   4.42760195  0.89260391  4.42757693
   4.42989756  2.65537837  6.20510056
   6.20511594  2.65536938  4.42988359
   7.09099347  0.00924511  3.54400629
   7.09512852  1.77243702  5.32049236
   8.87705409  0.01622761  5.31987995
   8.86217731  1.77624591  3.54506451
   9.75959154  0.89179712  6.20548088
   7.98027410  0.89237979  4.43174659
   7.99392752  2.64565184  6.21044836
   9.75243194  2.65687985  4.43193096
  10.62886477  3.54679640  3.54258826
   0.00000041  5.32028510  5.31748581
   1.75732438  3.53248304  5.31369678
   1.75070454  5.31740495  3.52381493
   2.65284047  4.42073767  6.19839783
   0.87877282  4.43134879  4.42730146
   0.88979014  6.20581150  6.20243891
   2.63492265  6.19749999  4.41758328
   3.51149282  3.50497590  3.51150487
   3.45135459  5.21693951  5.23491239
   5.31749855  3.52459512  5.31750063
   5.23489558  5.21690686  3.45134645
   6.24679931  4.37478237  6.24679188
   4.38820798  4.37478234  4.38820075
   7.08713630  3.54436961  3.54786412
   7.18365499  5.21690532  5.40010485
   8.87769786  3.53243947  5.32127408
   8.85411546  5.32083845  3.55134700
   9.75621065  4.43134448  6.20766844
   7.98218450  4.42069004  4.43655834
   8.00005996  6.19749038  6.21739158
   9.74520184  6.20581525  4.43252274
  10.62874168  7.09295416  3.54358259
  10.63498717  8.86685082  5.31747883
   1.76940682  7.09295252  5.31571790
   1.76050586  8.87155552  3.54055227
   2.66527293  7.97622733  6.20070458
   0.88214220  7.97959397  4.42900662
   0.88490537  9.75425149  6.20320773
   2.63228732  9.77995707  4.42934239
   3.51197532  7.11149336  3.51198337
   3.51755577  8.90701384  5.30856826
   5.30856110  8.90701026  3.51757752
   6.31479560  8.14028143  6.31475401
   4.32024628  8.14027914  4.32020514
   4.43108396  9.76826075  6.20391472
   6.20394500  9.76827454  4.43105375
   7.09688676  7.11182584  3.53811495
   7.11742214  8.90700973  5.32643854
   8.86559853  7.09296403  5.31926418
   8.86295052  8.86952286  3.54849155
   9.75285585  7.97960286  6.20597319
   7.96971551  7.97623049  4.43427876
   8.00271866  9.77997893  6.20564681
   9.75008422  9.75426065  4.43176040
   0.00485193  0.00341524  7.09194773
   0.00423537  1.77456763  8.86423650
   1.77423010  0.00294149  8.86076955
   1.77281994  1.77626176  7.08991054
   2.65837729  0.88927563  9.74541500
   0.88958575  0.88927552  7.97662236
   0.88785862  2.66243563  9.74714207
   2.66041856  2.66213286  7.97458117
   3.54402348  0.00923977  7.09097536
   3.54508802  1.77626199  8.86217997
   5.31991948  0.01622534  8.87706879
   5.32051878  1.77245072  7.09511630
   6.20550882  0.89179174  9.75960931
   4.43177794  0.89237972  7.98026712
   4.43196477  2.65689954  9.75243665
   6.21046846  2.64565571  7.99393762
   7.09824623  0.01440274  7.09823499
   7.09675629  1.76851698  8.87623942
   8.86742757  0.00194693  8.86744302
   8.87622409  1.76851080  7.09674280
   9.75116753  0.88968397  9.75119853
   7.98434518  0.89074044  7.98434849
   7.98036844  2.66100241  9.75606103
   9.75603466  2.66100388  7.98036851
   0.00612100  3.54679460  7.09239545
   0.00840890  5.31993702  8.86597608
   1.77562363  3.54875959  8.85937598
   1.78090543  5.32085511  7.08362214
   2.66039648  4.43573992  9.74130801
   0.89369267  4.43574055  7.97460283
   0.88885786  6.20800733  9.74614242
   2.67894676  6.21176158  7.95605340
   3.54790571  3.54443553  7.08709508
   3.55137796  5.32085433  8.85409436
   5.32130308  3.53248261  8.87767592
   5.40008661  5.21693889  7.18364509
   6.20769815  4.43134829  9.75622817
   4.43660228  4.42073770  7.98215948
   4.43256005  6.20581181  9.74521086
   6.21741640  6.19749881  8.00007761
   7.12349492  3.50497661  7.12350585
   7.11118468  5.31740475  8.88429538
   8.87313688  3.54434260  8.87315996
   8.88428964  5.31739735  7.11119753
   9.75387089  4.43446443  9.75389683
   7.99190522  4.42802413  7.99192120
   7.98686653  6.20756438  9.76243926
   9.76241702  6.20756472  7.98687256
   0.00624198  7.09295178  7.09139962
   0.00524900  8.86566417  8.86398246
   1.77730927  7.09021456  8.85769082
   1.77204560  8.86950502  7.08648049
   2.66055957  7.97963299  9.74278472
   0.89221596  7.97963287  7.97443995
   0.88799952  9.75269970  9.74700109
   2.66145848  9.75240923  7.97354080
   3.53812515  7.11178798  7.09687507
   3.54851847  8.86950564  8.86295492
   5.31928150  7.09295178  8.86559349
   5.32642945  8.90701385  7.11744399
   6.20599289  7.97959352  9.75285871
   4.43429456  7.97622800  7.96972796
   4.43179115  9.75425176  9.75009580
   6.20565688  9.77995765  8.00271240
   7.12301657  7.11149164  7.12302437
   7.09444778  8.87155625  8.87449483
   8.87795123  7.09486359  8.87797315
   8.87447646  8.87155683  7.09443037
   9.75570677  7.98121843  9.75574250
   8.00136932  7.98488047  8.00138135
   7.98042782  9.75373234  9.75621758
   9.75618986  9.75373755  7.98043386
   5.31748879  6.51719482  5.31751611
 


--------------------------------------------------------------------------------------------------------


 use parallel FFT for orbitals z direction half grid
 k-point   1 :   0.0000 0.0000 0.0000  plane waves:   25343

 maximum and minimum number of plane-waves per node :      3174     3163

 maximum number of plane-waves:     25343
 maximum index in each direction: 
   IXMAX=   22   IYMAX=   22   IZMAX=   22
   IXMIN=  -22   IYMIN=  -22   IZMIN=    0


 parallel 3D FFT for wavefunctions:
    minimum data exchange during FFTs selected (reduces bandwidth)
 parallel 3D FFT for charge:
    minimum data exchange during FFTs selected (reduces bandwidth)


 FFT grid for exact exchange (Hartree Fock) 
  NGX = 70; NGY = 70; NGZ = 70

 use parallel FFT for orbitals z direction half grid
 
 Radii for the augmentation spheres in the non-local exchange
 for species   1 augmentation radius   0.874 (default was   0.699)
       energy cutoff for augmentation   2800.0
 for species   2 augmentation radius   1.496 (default was   1.197)
       energy cutoff for augmentation   2800.0

 real space projection operators:
  total allocation   :      12722.12 KBytes
  max/ min on nodes  :       1653.73       1464.11

 Maximum index for augmentation-charges in exchange          504
  SETUP_FOCK is finished

 total amount of memory used by VASP MPI-rank0   160557. kBytes
=======================================================================

   base      :      30000. kBytes
   nonl-proj :      12481. kBytes
   fftplans  :      13797. kBytes
   grid      :      32673. kBytes
   one-center:       1327. kBytes
   HF        :         73. kBytes
   nonlr-proj:       1965. kBytes
   wavefun   :      68241. kBytes
 
     INWAV:  cpu time    1.7559: real time    2.0499
 Broyden mixing: mesh for mixing (old mesh)
   NGX = 45   NGY = 45   NGZ = 45
  (NGX  =192   NGY  =192   NGZ  =192)
  gives a total of  91125 points

 charge density for first step will be calculated from the start-wavefunctions


--------------------------------------------------------------------------------------------------------


 Maximum index for augmentation-charges         1461 (set IRDMAX)


--------------------------------------------------------------------------------------------------------


 initial charge from wavefunction
 First call to EWALD:  gamma=   0.167
 Maximum number of real-space cells 3x 3x 3
 Maximum number of reciprocal cells 3x 3x 3

    FEWALD:  cpu time    0.0109: real time    0.0109


--------------------------------------- Iteration      1(   1)  ---------------------------------------


    POTLOK:  cpu time    1.0474: real time    1.0492
    SETDIJ:  cpu time    8.0936: real time    8.1147
    TRIAL :  cpu time  491.9363: real time  494.9866
    CORREC:  cpu time  490.0723: real time  493.4664
    CHARGE:  cpu time    0.5409: real time    0.5412
    --------------------------------------------
      LOOP:  cpu time  991.7199: real time  998.1895

 eigenvalue-minimisations  :     0
 total energy-change (2. order) :-0.2222449E+04  (-0.4594546E-06)
 number of electron     866.9999909 magnetization       1.0000000
 augmentation part       18.2502370 magnetization       0.0645711

 Free energy of the ion-electron system (eV)
  ---------------------------------------------------
  alpha Z        PSCENC =      3277.45300731
  Ewald energy   TEWEN  =    -38586.23967933
  -Hartree energ DENC   =     -2856.58473139
  -exchange      EXHF   =      2005.21357838
  -V(xc)+E(xc)   XCENC  =      2347.45657637
  PAW double counting   =     95777.82876609   -95857.52909834
  entropy T*S    EENTRO =        -0.00000000
  eigenvalues    EBANDS =      -477.58816879
  atomic energy  EATOM  =     32147.54118438
  ---------------------------------------------------
  free energy    TOTEN  =     -2222.44856532 eV

  energy without entropy =    -2222.44856532  energy(sigma->0) =    -2222.44856532
  exchange ACFDT corr.  =         0.00000000  see jH, gK, PRB 81, 115126


--------------------------------------------------------------------------------------------------------




--------------------------------------- Iteration      1(   2)  ---------------------------------------


    POTLOK:  cpu time    1.0408: real time    1.0493
    SETDIJ:  cpu time    8.0564: real time    8.0665
    TRIAL :  cpu time  491.3280: real time  494.0373
    CORREC:  cpu time  486.7378: real time  491.7614
    EDDIAG:  cpu time  476.4728: real time  481.5522
    CHARGE:  cpu time    0.5354: real time    0.5393
    --------------------------------------------
      LOOP:  cpu time 1464.1727: real time 1477.0074

 eigenvalue-minimisations  :     0
 total energy-change (2. order) :-0.4608373E-06  (-0.3843610E-06)
 number of electron     866.9999909 magnetization       1.0000000
 augmentation part       18.2502018 magnetization       0.0646813

 Free energy of the ion-electron system (eV)
  ---------------------------------------------------
  alpha Z        PSCENC =      3277.45300731
  Ewald energy   TEWEN  =    -38586.23967933
  -Hartree energ DENC   =     -2856.58418526
  -exchange      EXHF   =      2005.21310200
[...]
 100       0.000     0.020    -0.020     0.071     0.063     0.076
 101       0.022     0.009    -0.031     0.058    -0.012    -0.014
 102       0.031    -0.013    -0.017     0.007     0.008     0.006
 103       0.041    -0.021    -0.021     0.002     0.001     0.005
 104       0.010    -0.036     0.026    -0.007     0.031    -0.019
 105      -0.015     0.030    -0.015     0.108     0.087     0.108
 106       0.170    -0.004    -0.166     1.151     1.024     0.941
 107      -0.039     0.079    -0.039    -0.000    -0.006    -0.000
 108      -0.166    -0.004     0.170     0.941     1.024     1.151
 109      -0.105     0.210    -0.105    -0.082     0.041    -0.082
 110      -0.105     0.210    -0.105     0.082     0.041     0.082
 111      -0.040     0.081    -0.040    -0.016    -0.007     0.016
 112       0.170    -0.004    -0.166    -1.151     1.024    -0.941
 113       0.010     0.016    -0.026    -0.075     0.054    -0.059
 114       0.015     0.003    -0.019    -0.032    -0.017    -0.024
 115       0.031    -0.013    -0.017    -0.007     0.008    -0.006
 116       0.022     0.009    -0.031    -0.058    -0.012     0.014
 117       0.010    -0.036     0.026     0.007     0.031     0.019
 118       0.041    -0.021    -0.021    -0.002     0.001    -0.005
 119       0.020    -0.001    -0.018    -0.009     0.004    -0.011
 120       0.018    -0.003    -0.015    -0.000     0.008     0.000
 121       0.014     0.016    -0.030    -0.010     0.024     0.025
 122       0.017    -0.008    -0.009    -0.012     0.012    -0.007
 123       0.069    -0.028    -0.042    -0.058     0.026    -0.018
 124       0.023    -0.011    -0.012    -0.003     0.005    -0.001
 125       0.013     0.006    -0.019    -0.027     0.016    -0.017
 126      -0.005     0.007    -0.003    -0.035     0.032    -0.037
 127      -0.017     0.034    -0.017    -0.022     0.024    -0.022
 128      -0.034     0.050    -0.017    -0.009     0.001    -0.026
 129      -0.017     0.050    -0.034    -0.026     0.001    -0.009
 130       0.020    -0.041     0.020     0.520     0.541     0.520
 131       0.020    -0.041     0.020    -0.520     0.541    -0.520
 132      -0.030     0.061    -0.030     0.006    -0.010    -0.006
 133      -0.030     0.061    -0.030    -0.006    -0.010     0.006
 134      -0.049     0.099    -0.049     1.145    -1.123    -1.145
 135      -0.034     0.050    -0.017     0.009     0.001     0.026
 136       0.014     0.016    -0.030     0.010     0.024    -0.025
 137       0.001     0.011    -0.012     0.106    -0.096    -0.107
 138       0.023    -0.011    -0.012     0.003     0.005     0.001
 139       0.069    -0.028    -0.042     0.058     0.026     0.018
 140      -0.005     0.007    -0.003     0.035     0.032     0.037
 141       0.013     0.006    -0.019     0.027     0.016     0.017
 142       0.007     0.006    -0.013    -0.011    -0.005     0.006
 143      -0.001     0.005    -0.004    -0.003     0.001    -0.004
 144      -0.005     0.010    -0.005    -0.009    -0.005     0.009
 145      -0.001     0.010    -0.009     0.005    -0.002    -0.004
 146      -0.006     0.005     0.001    -0.000    -0.001     0.001
 147       0.001     0.005    -0.006    -0.001    -0.001     0.000
 148       0.000    -0.001     0.000     0.001    -0.001    -0.001
 149      -0.004     0.009    -0.004     0.009    -0.004    -0.009
 150      -0.009     0.019    -0.009    -0.002    -0.009     0.002
 151      -0.009     0.010    -0.001     0.004    -0.002    -0.005
 152      -0.011     0.014    -0.003    -0.006    -0.004     0.011
 153      -0.018     0.032    -0.013     0.003    -0.001    -0.005
 154      -0.010     0.006     0.004    -0.009     0.011    -0.008
 155      -0.014     0.021    -0.007     0.002    -0.001     0.000
 156      -0.016     0.009     0.006     0.023    -0.018    -0.024
 157      -0.028     0.018     0.010    -0.006     0.000    -0.031
 158      -0.011     0.021    -0.011     0.008     0.003     0.008
 159      -0.022     0.015     0.006    -0.010     0.009    -0.026
 160      -0.002     0.004    -0.002     0.000     0.002     0.000
 161       0.006     0.015    -0.022    -0.026     0.009    -0.010
 162      -0.000     0.001    -0.000    -0.001     0.000    -0.001
 163      -0.004     0.008    -0.004     0.001     0.004     0.001
 164      -0.005     0.002     0.003    -0.004     0.002    -0.003
 165       0.003     0.002    -0.005    -0.003     0.002    -0.004
 166       0.013    -0.001    -0.012    -0.003     0.000    -0.005
 167       0.004     0.000    -0.005    -0.002    -0.001    -0.007
 168       0.003    -0.005     0.003     0.005    -0.008    -0.005
 169       0.015     0.003    -0.019     0.032    -0.017     0.024
 170      -0.005    -0.009     0.014     0.002    -0.005    -0.006
 171       0.014    -0.009    -0.005     0.006    -0.005    -0.002
 172      -0.000     0.000    -0.000     0.006    -0.004    -0.006
 173       0.016    -0.033     0.016    -0.002    -0.039     0.002
 174      -0.040     0.081    -0.040     0.016    -0.007    -0.016
 175      -0.019     0.003     0.015    -0.024    -0.017    -0.032
 176      -0.026     0.016     0.010    -0.059     0.054    -0.075
 177      -0.166    -0.004     0.170    -0.941     1.024    -1.151
 178      -0.017    -0.013     0.031    -0.006     0.008    -0.007
 179      -0.031     0.009     0.022     0.014    -0.012    -0.058
 180      -0.021    -0.021     0.041    -0.005     0.001    -0.002
 181       0.026    -0.036     0.010     0.019     0.031     0.007
 182      -0.015     0.030    -0.015    -0.108     0.087    -0.108
 183      -0.020     0.020     0.000    -0.076     0.063    -0.071
 184       0.003    -0.005     0.003    -0.010     0.012    -0.010
 185       0.000     0.020    -0.020    -0.071     0.063    -0.076
 186       0.004    -0.008     0.004    -0.001     0.003    -0.001
 187       0.003    -0.007     0.003    -0.006     0.023    -0.006
 188      -0.002    -0.013     0.015     0.011     0.010     0.011
 189       0.015    -0.013    -0.002     0.011     0.010     0.011
 190       0.020    -0.001    -0.018     0.009     0.004     0.011
 191       0.002     0.003    -0.005    -0.007    -0.005     0.009
 192      -0.011     0.023    -0.011    -0.054    -0.049     0.054
 193       0.001     0.011    -0.012    -0.106    -0.096     0.107
 194      -0.006    -0.014     0.020    -0.004    -0.011     0.007
 195       0.020    -0.014    -0.006    -0.007    -0.011     0.004
 196       0.001    -0.002     0.001    -0.003    -0.003     0.003
 197      -0.007     0.014    -0.007    -0.014    -0.008     0.014
 198      -0.049     0.099    -0.049    -1.145    -1.123     1.145
 199      -0.012     0.011     0.001    -0.107    -0.096     0.106
 200      -0.030     0.016     0.014    -0.025     0.024     0.010
 201      -0.017     0.050    -0.034     0.026     0.001     0.009
 202      -0.012    -0.011     0.023     0.001     0.005     0.003
 203      -0.042    -0.028     0.069     0.018     0.026     0.058
 204      -0.019     0.006     0.013     0.017     0.016     0.027
 205      -0.003     0.007    -0.005     0.037     0.032     0.035
 206      -0.017     0.034    -0.017     0.022     0.024     0.022
 207      -0.009    -0.008     0.017     0.007     0.012     0.012
 208      -0.001     0.002    -0.001    -0.004     0.010    -0.004
 209       0.017    -0.008    -0.009     0.012     0.012     0.007
 210       0.003    -0.006     0.003     0.002    -0.002     0.002
 211       0.005    -0.009     0.005     0.007     0.015     0.007
 212      -0.005    -0.000     0.006     0.002     0.001     0.001
 213       0.006    -0.000    -0.005     0.001     0.001     0.002
 214     -54.398   108.795   -54.397     0.008     2.448    -0.001
 ---------------------------------------------------------------------


 Total hyperfine coupling parameters after diagonalization (MHz)
 (convention: |A_zz| > |A_xx| > |A_yy|)
 ----------------------------------------------------------------------
  ion      A_xx      A_yy      A_zz     asymmetry (A_yy - A_xx)/ A_zz 
 ----------------------------------------------------------------------
   1       0.011     0.008     0.020      -0.130
   2       0.007     0.002     0.016      -0.257
   3       0.007     0.003     0.011      -0.405
   4       0.007     0.002     0.016      -0.257
   5       0.018     0.010     0.026      -0.299
   6      -0.006    -0.004    -0.006      -0.284
   7       0.033     0.026     0.041      -0.178
   8       0.033     0.026     0.041      -0.178
   9       0.064     0.053     0.087      -0.123
  10       0.007    -0.003     0.062      -0.149
  11       0.213     0.209     0.242      -0.016
  12       0.376     0.366     0.382      -0.028
  13      -0.021     0.007    -0.028      -0.981
  14      -0.017    -0.003     0.019       0.716
  15      -0.048     0.013    -0.063      -0.973
  16       0.095     0.081     0.156      -0.089
  17       0.064     0.053     0.087      -0.123
  18       0.011     0.004     0.026      -0.252
  19      -0.007    -0.007     0.022       0.026
  20       0.006     0.002     0.016      -0.257
  21      -0.009    -0.004    -0.015      -0.334
  22      -0.009    -0.004    -0.015      -0.334
  23      -0.039    -0.013    -0.040      -0.656
  24       0.003     0.002     0.006      -0.201
  25      -0.001    -0.000    -0.007      -0.117
  26       0.162     0.148     0.164      -0.087
  27       0.010     0.006     0.041      -0.099
  28       0.162     0.148     0.164      -0.087
  29       0.030     0.019     0.067      -0.163
  30       0.033     0.023     0.039      -0.270
  31       0.020     0.004     0.050      -0.326
  32       0.020     0.004     0.050      -0.326
  33      -0.010     0.004    -0.024      -0.557
  34       0.432     0.414     0.636      -0.028
  35       0.576     0.570     0.767      -0.008
  36       0.062     0.018     0.077      -0.569
  37      -0.482    -0.372    -0.492      -0.224
  38       0.054     0.043     0.098      -0.110
  39      -0.421    -0.354    -0.449      -0.149
  40      -0.042     0.015    -0.052      -1.090
  41      -0.010     0.004    -0.024      -0.557
  42       0.077     0.018     0.111      -0.533
  43       0.019     0.016     0.038      -0.081
  44       0.162     0.148     0.164      -0.087
  45      -0.037    -0.015    -0.041      -0.549
  46      -0.037    -0.015    -0.041      -0.549
  47      -0.493    -0.414    -0.503      -0.156
  48      -0.024    -0.010    -0.026      -0.538
  49       0.072     0.069     0.087      -0.025
  50       0.069     0.062     0.089      -0.083
  51       0.014     0.004     0.029      -0.349
  52       0.069     0.062     0.088      -0.083
  53       0.044     0.042     0.078      -0.029
  54       0.023     0.014     0.027      -0.347
  55      -0.008    -0.002    -0.014      -0.442
  56      -0.008    -0.002    -0.014      -0.442
  57       0.045     0.023     0.071      -0.319
  58       0.097     0.094     0.135      -0.026
  59       0.040    -0.035     0.044      -1.722
  60      -0.015     0.008    -0.029      -0.801
  61      -0.073    -0.060     0.088       0.137
  62      -0.050    -0.015    -0.052      -0.687
  63       0.296     0.293     0.400      -0.007
  64       0.103     0.092     0.166      -0.067
  65       0.045     0.023     0.071      -0.319
  66       0.793     0.784     1.099      -0.008
  67       0.433     0.419     0.587      -0.024
  68       0.069     0.062     0.089      -0.083
  69      -0.070    -0.034    -0.076      -0.466
  70      -0.070    -0.034    -0.076      -0.465
  71       0.030     0.028     0.070      -0.027
  72      -0.011    -0.002    -0.012      -0.714
  73       0.064     0.053     0.087      -0.123
  74       0.376     0.365     0.382      -0.028
  75       0.213     0.209     0.242      -0.016
  76       0.007    -0.003     0.062      -0.149
  77      -0.021     0.007    -0.028      -0.981
  78      -0.017    -0.003     0.019       0.717
  79       0.095     0.081     0.156      -0.089
  80      -0.048     0.013    -0.063      -0.973
  81      -0.038    -0.000    -0.040      -0.939
  82      -0.024    -0.019     0.027       0.164
  83       0.147     0.143     0.224      -0.014
  84      -0.024    -0.019     0.027       0.164
  85       0.038     0.035     0.080      -0.042
  86       0.038     0.035     0.080      -0.042
  87      -0.035     0.030    -0.040      -1.625
  88      -0.035     0.030    -0.040      -1.625
  89       0.015    -0.002     0.036      -0.488
  90      -0.024    -0.019     0.027       0.164
  91       0.213     0.209     0.242      -0.016
  92       0.011     0.004     0.026      -0.252
  93      -0.017    -0.003     0.019       0.716
  94      -0.021     0.007    -0.028      -0.982
  95      -0.048     0.013    -0.063      -0.973
  96       0.095     0.081     0.156      -0.089
  97      -0.010     0.004    -0.024      -0.557
  98       0.062     0.018     0.077      -0.569
  99       0.576     0.570     0.767      -0.008
 100       0.432     0.414     0.636      -0.028
 101      -0.482    -0.372    -0.492      -0.224
 102       0.054     0.043     0.098      -0.110
 103      -0.042     0.015    -0.052      -1.090
 104      -0.421    -0.354    -0.449      -0.149
 105       0.243     0.241     0.550      -0.004
 106       4.309     4.259     7.424      -0.007
 107      -0.077     0.035    -0.089      -1.249
 108       4.309     4.259     7.424      -0.007
 109      -0.388    -0.029    -0.427      -0.840
 110      -0.388    -0.029    -0.427      -0.840
 111       0.858     0.849     0.981      -0.009
 112       4.308     4.258     7.423      -0.007
 113       0.576     0.570     0.767      -0.008
 114       0.077     0.018     0.111      -0.533
 115       0.054     0.043     0.098      -0.110
 116      -0.482    -0.372    -0.492      -0.224
 117      -0.421    -0.354    -0.449      -0.149
 118      -0.042     0.015    -0.052      -1.090
 119       0.045     0.023     0.071      -0.319
 120      -0.015     0.008    -0.029      -0.800
 121       0.040    -0.035     0.044      -1.721
 122       0.097     0.094     0.135      -0.026
 123      -0.073    -0.060     0.088       0.137
 124      -0.050    -0.015    -0.052      -0.688
 125       0.103     0.092     0.166      -0.066
 126       0.296     0.293     0.399      -0.007
 127       0.870     0.842     0.937      -0.030
 128      -0.149    -0.064    -0.159      -0.535
 129      -0.149    -0.064    -0.159      -0.535
 130       1.094     1.080     2.671      -0.005
 131       1.094     1.080     2.671      -0.005
 132       0.284     0.264     0.367      -0.054
 133       0.284     0.264     0.367      -0.054
 134       7.909     7.842    11.292      -0.006
 135      -0.149    -0.064    -0.159      -0.535
 136       0.040    -0.035     0.044      -1.722
 137       0.793     0.784     1.099      -0.008
 138      -0.050    -0.015    -0.052      -0.688
 139      -0.072    -0.060     0.088       0.137
 140       0.296     0.294     0.400      -0.007
 141       0.103     0.092     0.166      -0.067
 142       0.064     0.053     0.087      -0.123
 143       0.007     0.003     0.016      -0.256
 144      -0.007    -0.007     0.022       0.026
 145       0.011     0.004     0.027      -0.251
 146      -0.009    -0.004    -0.015      -0.335
 147      -0.009    -0.004    -0.015      -0.334
 148       0.003     0.002     0.006      -0.202
 149      -0.039    -0.013    -0.040      -0.656
 150       0.015    -0.002     0.036      -0.487
 151       0.011     0.004     0.026      -0.251
 152       0.213     0.209     0.242      -0.016
 153      -0.024    -0.019     0.027       0.165
 154      -0.017    -0.003     0.019       0.717
 155      -0.021     0.007    -0.028      -0.982
 156       0.095     0.081     0.156      -0.089
 157      -0.048     0.013    -0.063      -0.974
 158      -0.038    -0.000    -0.040      -0.940
 159       0.007    -0.003     0.062      -0.149
 160       0.007     0.003     0.011      -0.406
 161       0.007    -0.003     0.062      -0.149
 162      -0.006    -0.005    -0.006      -0.284
 163       0.018     0.010     0.026      -0.299
 164       0.033     0.026     0.041      -0.178
 165       0.033     0.026     0.041      -0.178
 166      -0.010     0.004    -0.024      -0.556
 167       0.162     0.148     0.164      -0.087
 168       0.019     0.016     0.038      -0.081
 169       0.077     0.018     0.111      -0.533
 170      -0.037    -0.015    -0.041      -0.549
 171      -0.037    -0.015    -0.041      -0.549
 172      -0.024    -0.010    -0.026      -0.539
 173      -0.493    -0.414    -0.503      -0.156
 174       0.858     0.849     0.981      -0.009
 175       0.077     0.018     0.111      -0.533
 176       0.576     0.570     0.767      -0.008
 177       4.308     4.258     7.423      -0.007
 178       0.054     0.043     0.098      -0.110
 179      -0.482    -0.372    -0.492      -0.224
 180      -0.042     0.015    -0.052      -1.090
 181      -0.421    -0.354    -0.449      -0.149
 182       0.243     0.241     0.550      -0.004
 183       0.432     0.414     0.636      -0.028
 184       0.010     0.006     0.041      -0.099
 185       0.432     0.414     0.636      -0.028
 186       0.033     0.023     0.039      -0.270
 187       0.030     0.019     0.067      -0.163
 188       0.020     0.004     0.050      -0.326
 189       0.020     0.004     0.050      -0.326
 190       0.045     0.023     0.071      -0.319
 191       0.069     0.062     0.089      -0.083
 192       0.433     0.419     0.587      -0.024
 193       0.793     0.784     1.098      -0.008
 194      -0.070    -0.034    -0.076      -0.466
 195      -0.070    -0.034    -0.076      -0.465
 196      -0.011    -0.002    -0.012      -0.717
 197       0.030     0.028     0.070      -0.028
 198       7.909     7.842    11.291      -0.006
 199       0.792     0.784     1.098      -0.008
 200       0.040    -0.035     0.044      -1.722
 201      -0.149    -0.064    -0.159      -0.535
 202      -0.050    -0.015    -0.052      -0.687
 203      -0.072    -0.060     0.088       0.137
 204       0.103     0.092     0.166      -0.067
 205       0.296     0.293     0.399      -0.007
 206       0.870     0.842     0.937      -0.030
 207       0.097     0.094     0.135      -0.026
 208       0.014     0.004     0.029      -0.349
 209       0.097     0.094     0.135      -0.026
 210       0.023     0.014     0.027      -0.347
 211       0.044     0.042     0.077      -0.030
 212      -0.008    -0.002    -0.014      -0.442
 213      -0.008    -0.002    -0.014      -0.443
 214     -76.478   -71.582    89.163       0.055
 ---------------------------------------------------------------------



--------------------------------------------------------------------------------------------------------


 writing wavefunctions
     LOOP+:  cpu time 3158.0582: real time 3189.6253
    4ORBIT:  cpu time    0.0000: real time    0.0000

 total amount of memory used by VASP MPI-rank0   257613. kBytes
=======================================================================

   base      :      30000. kBytes
   nonl-proj :      12481. kBytes
   fftplans  :      13797. kBytes
   grid      :      32673. kBytes
   one-center:       1327. kBytes
   HF        :         73. kBytes
   nonlr-proj:       1965. kBytes
   wavefun   :      68241. kBytes
   fock_wrk  :      97056. kBytes
 
  
  
 General timing and accounting informations for this job:
 ========================================================
  
                  Total CPU time used (sec):     3209.606
                            User time (sec):     3192.018
                          System time (sec):       17.588
                         Elapsed time (sec):     3243.530
  
                   Maximum memory used (kb):     1857416.
                   Average memory used (kb):          N/A
  
                          Minor page faults:      1538725
                          Major page faults:            2
                 Voluntary context switches:         2621
