 vasp.6.2.1 16May21 (build Sep 27 2021 21:11:04) gamma-only                     
  
 executed on             LinuxIFC date 2023.05.10  09:46:02
 running   24 mpi-ranks, with    1 threads/rank
 distrk:  each k-point on   24 cores,    1 groups
 distr:  one band on NCORE=   8 cores,    3 groups


--------------------------------------------------------------------------------------------------------


 INCAR:
   GGA = PE
   ISTART = 1
   ISPIN = 2
   ENCUT = 700
   ENAUG = 1400
   EDIFF = 1E-6
   IBRION = 2
   POTIM = 0.2
   ALGO = All
   NSW = 0
   EDIFFG = -1E-2
   ISMEAR = 0
   SIGMA = 0.01
   ISIF = 1
   LREAL = .FALSE.
   ISYM = 0
   NELECT = 866
   PREC = Accurate
   LHYPERFINE = .TRUE.
   LEFG = .TRUE.
   LHFCALC = .TRUE.
   HFSCREEN = 0.2
   NCORE = 8
   NELM = 60
   NWRITE = 2
   SYMPREC = 1.0e-8

 POTCAR:    PAW_PBE C 08Apr2002                   
 POTCAR:    PAW_PBE Pa 07Sep2000                  
 -----------------------------------------------------------------------------
|                                                                             |
|           W    W    AA    RRRRR   N    N  II  N    N   GGGG   !!!           |
|           W    W   A  A   R    R  NN   N  II  NN   N  G    G  !!!           |
|           W    W  A    A  R    R  N N  N  II  N N  N  G       !!!           |
|           W WW W  AAAAAA  RRRRR   N  N N  II  N  N N  G  GGG   !            |
|           WW  WW  A    A  R   R   N   NN  II  N   NN  G    G                |
|           W    W  A    A  R    R  N    N  II  N    N   GGGG   !!!           |
|                                                                             |
|     You use a magnetic or noncollinear calculation, but did not specify     |
|     the initial magnetic moment with the MAGMOM tag. Note that a            |
|     default of 1 will be used for all atoms. This ferromagnetic setup       |
|     may break the symmetry of the crystal, in particular it may rule        |
|     out finding an antiferromagnetic solution. Thence, we recommend         |
|     setting the initial magnetic moment manually or verifying carefully     |
|     that this magnetic setup is desired.                                    |
|                                                                             |
 -----------------------------------------------------------------------------

 POTCAR:    PAW_PBE C 08Apr2002                   
   SHA256 =  253f7b50bb8d59471dbedb8285d89021f4a42ed1a2c5d38a03a736e69125dd95 C/POTCAR              
   COPYR  = (c) Copyright 08Apr2002 Georg Kresse                                                    
   COPYR  = This file is part of the software VASP. Any use, copying, and all other rights are regul
   COPYR  = If you do not have a valid VASP license, you may not use, copy or distribute this file. 
   VRHFIN =C: s2p2                                                                                  
   LEXCH  = PE                                                                                      
   EATOM  =   147.1560 eV,   10.8157 Ry                                                             
                                                                                                    
   TITEL  = PAW_PBE C 08Apr2002                                                                     
   LULTRA =        F    use ultrasoft PP ?                                                          
   IUNSCR =        1    unscreen: 0-lin 1-nonlin 2-no                                               
   RPACOR =    1.200    partial core radius                                                         
   POMASS =   12.011; ZVAL   =    4.000    mass and valenz                                          
   RCORE  =    1.500    outmost cutoff radius                                                       
   RWIGS  =    1.630; RWIGS  =    0.863    wigner-seitz radius (au A)                               
   ENMAX  =  400.000; ENMIN  =  300.000 eV                                                          
   ICORE  =        2    local potential                                                             
   LCOR   =        T    correct aug charges                                                         
   LPAW   =        T    paw PP                                                                      
   EAUG   =  644.873                                                                                
   DEXC   =    0.000                                                                                
   RMAX   =    1.529    core radius for proj-oper                                                   
   RAUG   =    1.300    factor for augmentation sphere                                              
   RDEP   =    1.501    radius for radial grids                                                     
   RDEPT  =    1.300    core radius for aug-charge                                                  
                                                                                                    
   Atomic configuration                                                                             
    4 entries                                                                                       
     n  l   j            E        occ.                                                              
     1  0  0.50      -273.3789   2.0000                                                             
     2  0  0.50       -13.7508   2.0000                                                             
     2  1  0.50        -5.2854   2.0000                                                             
     3  2  1.50        -5.4423   0.0000                                                             
   Description                                                                                      
     l       E           TYP  RCUT    TYP  RCUT                                                     
     0    -13.7508458     23  1.200                                                                 
     0     -8.2022199     23  1.200                                                                 
     1     -5.2854383     23  1.500                                                                 
     1     34.0145650     23  1.500                                                                 
     2     -5.4423304      7  1.500                                                                 
  local pseudopotential read in
  partial core-charges read in
  partial kinetic energy density read in
  atomic valenz-charges read in
  non local Contribution for L=           0  read in
    real space projection operators read in
  non local Contribution for L=           0  read in
    real space projection operators read in
  non local Contribution for L=           1  read in
    real space projection operators read in
  non local Contribution for L=           1  read in
    real space projection operators read in
    PAW grid and wavefunctions read in
 
   number of l-projection  operators is LMAX  =           4
   number of lm-projection operators is LMMAX =           8
 
 POTCAR:    PAW_PBE Pa 07Sep2000                  
   SHA256 =  04e32654b760de29c7f02015f2c4b9b92aeb120699210996a29249ba80bfa323 Pa/POTCAR             
   COPYR  = (c) Copyright 07Sep2000 Georg Kresse                                                    
   COPYR  = This file is part of the software VASP. Any use, copying, and all other rights are regul
   COPYR  = If you do not have a valid VASP license, you may not use, copy or distribute this file. 
   VRHFIN =Pa:  [Xe,5d,4f]                                                                          
   LEXCH  = PE                                                                                      
   EATOM  =  1180.0855 eV,   86.7338 Ry                                                             
                                                                                                    
   TITEL  = PAW_PBE Pa 07Sep2000                                                                    
   LULTRA =        F    use ultrasoft PP ?                                                          
   IUNSCR =        1    unscreen: 0-lin 1-nonlin 2-no                                               
   RPACOR =    2.200    partial core radius                                                         
   POMASS =  229.000; ZVAL   =   13.000    mass and valenz                                          
   RCORE  =    2.800    outmost cutoff radius                                                       
   RWIGS  =    2.900; RWIGS  =    1.535    wigner-seitz radius (au A)                               
   ENMAX  =  252.193; ENMIN  =  189.145 eV                                                          
   RCLOC  =    1.808    cutoff for local pot                                                        
   LCOR   =        T    correct aug charges                                                         
   LPAW   =        T    paw PP                                                                      
   EAUG   =  536.979                                                                                
   DEXC   =    0.000                                                                                
   RMAX   =    2.858    core radius for proj-oper                                                   
   RAUG   =    1.300    factor for augmentation sphere                                              
   RDEP   =    2.921    radius for radial grids                                                     
   RDEPT  =    2.247    core radius for aug-charge                                                  
                                                                                                    
   Atomic configuration                                                                             
   18 entries                                                                                       
     n  l   j            E        occ.                                                              
     1  0  0.50   -112985.5190   2.0000                                                             
     2  0  0.50    -21035.6541   2.0000                                                             
     2  1  1.50    -17527.8639   6.0000                                                             
     3  0  0.50     -5294.0126   2.0000                                                             
     3  1  1.50     -4318.2192   6.0000                                                             
     3  2  2.50     -3460.9455  10.0000                                                             
     4  0  0.50     -1342.3530   2.0000                                                             
     4  1  1.50     -1023.6497   6.0000                                                             
     4  2  2.50      -699.1199  10.0000                                                             
     4  3  3.50      -353.3721  14.0000                                                             
     5  0  0.50      -298.9475   2.0000                                                             
     5  1  1.50      -201.1573   6.0000                                                             
     5  2  2.50       -97.1791  10.0000                                                             
     6  0  0.50       -48.3074   2.0000                                                             
     7  0  0.50        -4.5039   2.0000                                                             
     6  1  1.50       -24.3672   6.0000                                                             
     6  2  1.50        -3.1149   2.0000                                                             
     5  3  2.50        -5.1513   1.0000                                                             
   Description                                                                                      
     l       E           TYP  RCUT    TYP  RCUT                                                     
     0    -48.3074378     23  2.800                                                                 
     0     -4.5039177     23  2.800                                                                 
     1    -24.3672020     23  2.500                                                                 
     1    -25.7277846     23  2.500                                                                 
     2     -3.1148861     23  2.500                                                                 
     2      1.7959667     23  2.500                                                                 
     3     -5.1512774     23  2.800                                                                 
     3     -6.5118600     23  2.800                                                                 
  local pseudopotential read in
  partial core-charges read in
  partial kinetic energy density read in
  atomic valenz-charges read in
  non local Contribution for L=           0  read in
    real space projection operators read in
  non local Contribution for L=           0  read in
    real space projection operators read in
  non local Contribution for L=           1  read in
    real space projection operators read in
  non local Contribution for L=           1  read in
    real space projection operators read in
  non local Contribution for L=           2  read in
    real space projection operators read in
  non local Contribution for L=           2  read in
    real space projection operators read in
  non local Contribution for L=           3  read in
    real space projection operators read in
  non local Contribution for L=           3  read in
    real space projection operators read in
    PAW grid and wavefunctions read in
 
   number of l-projection  operators is LMAX  =           8
   number of lm-projection operators is LMMAX =          32
 
 -----------------------------------------------------------------------------
|                                                                             |
|               ----> ADVICE to this user running VASP <----                  |
|                                                                             |
|     You have a (more or less) 'large supercell' and for larger cells it     |
|     might be more efficient to use real-space projection operators.         |
|     Therefore, try LREAL= Auto in the INCAR file.                           |
|     Mind: For very accurate calculation, you might also keep the            |
|     reciprocal projection scheme (i.e. LREAL=.FALSE.).                      |
|                                                                             |
 -----------------------------------------------------------------------------

 WARNING: PSMAXN for non-local potential too small
          PSMAXN should be >   13.5545592237991       NTYP=           2
  PAW_PBE C 08Apr2002                   :
 energy of atom  1       EATOM= -147.1560
 kinetic energy error for atom=    0.0032 (will be added to EATOM!!)
  PAW_PBE Pa 07Sep2000                  :
 energy of atom  2       EATOM=-1180.0855
 kinetic energy error for atom=    0.0005 (will be added to EATOM!!)
 
 
 POSCAR: prv2
  positions in direct lattice
  velocities in cartesian coordinates
 exchange correlation table for  LEXCH =        8
   RHO(1)=    0.500       N(1)  =     2000
   RHO(2)=  100.500       N(2)  =     4000
 


--------------------------------------------------------------------------------------------------------


 ion  position               nearest neighbor table
   1  1.000  0.000  1.000- 162 1.53   6 1.53 196 1.54  72 1.54
   2  1.000  0.167  0.167-   7 1.53  24 1.53  21 1.53   6 1.54
   3  0.166  0.000  0.166-   5 1.53   6 1.53  55 1.54  56 1.54
   4  0.167  0.167  1.000-   8 1.53 148 1.53 146 1.53   6 1.54
   5  0.249  0.084  0.249-  81 1.53   3 1.53  10 1.53  76 1.53
   6  0.083  0.084  0.083-   1 1.53   3 1.53   4 1.54   2 1.54
   7  0.083  0.250  0.250-   2 1.53  76 1.53  97 1.54  27 1.54
   8  0.250  0.250  0.083-   4 1.53  10 1.53  33 1.54  27 1.54
   9  0.333  0.000  1.000- 204 1.53  14 1.53 146 1.53  56 1.53
  10  0.333  0.166  0.165-  15 1.52  14 1.53   8 1.53   5 1.53
  11  0.500  0.002  0.165-  63 1.52  14 1.53  64 1.53  13 1.54
  12  0.500  0.167  1.000- 154 1.53  14 1.53  16 1.53 156 1.53
  13  0.583  0.084  0.250-  18 1.53  84 1.53  89 1.54  11 1.54
  14  0.416  0.084  0.082-  11 1.53  12 1.53  10 1.53   9 1.53
  15  0.416  0.249  0.248-  10 1.52 105 1.53  84 1.54  35 1.54
  16  0.583  0.250  0.083-  35 1.52  12 1.53  41 1.53  18 1.53
  17  0.667  0.000  0.000-  64 1.53 154 1.53  22 1.53 212 1.53
  18  0.667  0.167  0.167-  13 1.53  22 1.53  16 1.53  23 1.53
  19  0.833  0.000  0.167-  22 1.53  21 1.53  72 1.53  71 1.53
  20  0.833  0.167  0.000- 164 1.53  24 1.53  22 1.53 162 1.54
  21  0.916  0.084  0.250-  19 1.53  73 1.53  92 1.53   2 1.53
  22  0.750  0.084  0.084-  19 1.53  17 1.53  18 1.53  20 1.53
  23  0.750  0.250  0.250-  43 1.53 111 1.53  92 1.53  18 1.53
  24  0.917  0.250  0.083-   2 1.53  20 1.53  25 1.54  43 1.54
  25  1.000  0.334  1.000-  30 1.53 186 1.53  24 1.54 148 1.54
  26  0.999  0.500  0.166-  31 1.53  48 1.53  45 1.54  30 1.54
  27  0.166  0.333  0.166-  29 1.53  30 1.53   7 1.54   8 1.54
  28  0.166  0.500  0.999-  32 1.53 172 1.53 170 1.54  30 1.54
  29  0.248  0.416  0.248-  27 1.53 100 1.54  34 1.54 105 1.54
  30  0.083  0.417  0.083-  25 1.53  27 1.53  26 1.54  28 1.54
  31  0.082  0.584  0.249- 100 1.53  26 1.53 119 1.54  51 1.54
  32  0.249  0.584  0.082-  34 1.53  28 1.53  57 1.54  51 1.54
  33  0.333  0.334  0.999-  38 1.53 156 1.53   8 1.54 170 1.54
  34  0.331  0.500  0.165-  32 1.53  39 1.53  38 1.54  29 1.54
  35  0.500  0.332  0.165-  16 1.52  37 1.54  15 1.54  38 1.54
  36  0.500  0.500  1.000- 178 1.53  38 1.53 180 1.54  40 1.54
  37  0.583  0.415  0.249- 108 1.48  42 1.53  35 1.54 111 1.54
  38  0.416  0.417  0.083-  33 1.53  36 1.53  34 1.54  35 1.54
  39  0.415  0.583  0.247- 108 1.51  34 1.53  59 1.54 127 1.56 214 2.85
  40  0.583  0.584  0.084-  59 1.53  42 1.53  65 1.54  36 1.54
  41  0.667  0.334  0.001- 178 1.53  16 1.53 164 1.54  46 1.54
  42  0.666  0.501  0.168-  40 1.53  37 1.53  47 1.54  46 1.54
  43  0.833  0.334  0.167-  45 1.53  46 1.53  23 1.53  24 1.54
  44  0.834  0.500  0.001- 188 1.53  48 1.53  46 1.54 186 1.54
  45  0.916  0.417  0.250-  43 1.53  97 1.54  26 1.54 114 1.54
  46  0.750  0.417  0.084-  43 1.53  41 1.54  44 1.54  42 1.54
  47  0.748  0.585  0.252- 134 1.52 114 1.54  42 1.54  67 1.55
  48  0.916  0.584  0.084-  44 1.53  26 1.53  67 1.54  49 1.54
  49  1.000  0.667  1.000-  54 1.53 210 1.53 172 1.54  48 1.54
  50  0.999  0.834  0.167-  72 1.53  55 1.53  54 1.54  69 1.54
  51  0.165  0.667  0.165-  54 1.52  53 1.53  32 1.54  31 1.54
  52  0.167  0.834  0.999- 196 1.53  56 1.53  54 1.54 194 1.54
  53  0.248  0.751  0.248- 127 1.52  51 1.53 122 1.54  58 1.54
  54  0.083  0.750  0.083-  51 1.52  49 1.53  50 1.54  52 1.54
  55  0.083  0.917  0.250- 122 1.53  50 1.53  73 1.53   3 1.54
  56  0.250  0.917  0.083-  58 1.53  52 1.53   9 1.53   3 1.54
  57  0.333  0.667  0.999- 194 1.53 180 1.54  32 1.54  62 1.54
  58  0.333  0.834  0.166-  56 1.53  62 1.54  53 1.54  63 1.54
  59  0.500  0.667  0.167-  40 1.53  39 1.54  62 1.54  61 1.54
  60  0.500  0.834  1.000-  64 1.53 204 1.53 202 1.53  62 1.53
  61  0.583  0.751  0.251- 134 1.52  66 1.54  59 1.54 129 1.54
  62  0.417  0.750  0.083-  60 1.53  58 1.54  59 1.54  57 1.54
  63  0.417  0.920  0.248-  11 1.52 129 1.52  81 1.54  58 1.54
  64  0.583  0.917  0.083-  17 1.53  66 1.53  60 1.53  11 1.53
  65  0.667  0.667  0.001-  70 1.53  40 1.54 188 1.54 202 1.54
  66  0.666  0.834  0.166-  64 1.53  70 1.54  71 1.54  61 1.54
  67  0.833  0.667  0.167-  69 1.54  70 1.54  48 1.54  47 1.55
  68  0.833  0.834  0.001-  72 1.53 212 1.53 210 1.54  70 1.54
  69  0.916  0.750  0.250- 119 1.53  67 1.54 137 1.54  50 1.54
  70  0.750  0.750  0.084-  65 1.53  67 1.54  66 1.54  68 1.54
  71  0.750  0.917  0.250-  89 1.53  19 1.53  66 1.54 137 1.54
  72  0.916  0.917  0.084-  68 1.53  50 1.53  19 1.53   1 1.54
  73  1.000  0.000  0.333- 141 1.53  78 1.53  21 1.53  55 1.53
  74  1.000  0.167  0.500-  93 1.53  78 1.53  79 1.53  96 1.53
  75  0.165  0.002  0.500- 126 1.52  78 1.53 125 1.53  77 1.54
  76  0.165  0.166  0.333-  80 1.52  78 1.53   7 1.53   5 1.53
  77  0.250  0.084  0.583- 145 1.53  82 1.53 150 1.54  75 1.54
  78  0.082  0.084  0.416-  75 1.53  74 1.53  76 1.53  73 1.53
  79  0.083  0.250  0.583-  99 1.52  74 1.53 166 1.53 145 1.53
  80  0.248  0.249  0.416-  76 1.52 105 1.53  82 1.54  99 1.54
  81  0.333  0.001  0.333-   5 1.53  86 1.54  63 1.54 126 1.54
  82  0.333  0.167  0.500-  77 1.53  86 1.53  80 1.54  87 1.54
  83  0.500  0.001  0.500- 133 1.53 132 1.53  86 1.54  85 1.54
  84  0.500  0.167  0.333-  13 1.53  86 1.53  15 1.54  88 1.54
  85  0.584  0.084  0.584-  90 1.53 153 1.53 158 1.54  83 1.54
  86  0.416  0.084  0.416-  84 1.53  82 1.53  81 1.54  83 1.54
  87  0.417  0.250  0.583- 107 1.53 174 1.53 153 1.54  82 1.54
  88  0.583  0.250  0.417- 107 1.53 111 1.53  90 1.54  84 1.54
  89  0.667  0.001  0.333- 133 1.53  71 1.53  13 1.54  94 1.54
  90  0.667  0.167  0.500-  94 1.53  85 1.53  95 1.54  88 1.54
  91  0.835  0.002  0.500- 140 1.52  93 1.53 141 1.53  94 1.54
  92  0.833  0.167  0.333-  94 1.53  21 1.53  96 1.53  23 1.53
  93  0.918  0.084  0.584-  91 1.53  74 1.53 161 1.53 142 1.53
  94  0.750  0.084  0.417-  92 1.53  90 1.53  89 1.54  91 1.54
  95  0.752  0.249  0.584- 161 1.52 182 1.53  90 1.54 113 1.54
  96  0.917  0.250  0.417- 113 1.52  74 1.53  97 1.53  92 1.53
  97  0.999  0.334  0.333- 102 1.53  96 1.53   7 1.54  45 1.54
  98  1.000  0.500  0.500- 102 1.53 115 1.53 118 1.54 103 1.54
  99  0.165  0.332  0.500-  79 1.52 101 1.54  80 1.54 102 1.54
 100  0.165  0.500  0.331-  31 1.53 104 1.53 102 1.54  29 1.54
 101  0.249  0.415  0.583- 106 1.48 169 1.53  99 1.54 174 1.54
 102  0.083  0.417  0.416-  97 1.53  98 1.53 100 1.54  99 1.54
 103  0.084  0.584  0.583- 121 1.53 169 1.53 190 1.54  98 1.54
 104  0.247  0.583  0.415- 106 1.51 100 1.53 121 1.54 127 1.56 214 2.85
 105  0.330  0.329  0.330- 110 1.50  80 1.53  15 1.53  29 1.54
 106  0.324  0.490  0.492- 101 1.48 104 1.51 110 1.52 214 2.25
 107  0.500  0.332  0.500-  87 1.53  88 1.53 110 1.57 109 1.57
 108  0.492  0.490  0.324-  37 1.48  39 1.51 110 1.52 214 2.25
 109  0.588  0.411  0.588- 182 1.50 112 1.52 177 1.52 107 1.57 214 2.48
 110  0.412  0.411  0.412- 105 1.50 108 1.52 106 1.52 107 1.57 214 2.48
 111  0.666  0.333  0.334-  88 1.53  23 1.53  37 1.54 116 1.54
 112  0.676  0.490  0.508- 116 1.48 117 1.51 109 1.52 214 2.25
 113  0.835  0.332  0.500-  96 1.52 116 1.54  95 1.54 115 1.54
 114  0.832  0.501  0.334- 118 1.53 116 1.53  47 1.54  45 1.54
 115  0.917  0.417  0.584- 166 1.53  98 1.53 185 1.54 113 1.54
 116  0.751  0.415  0.417- 112 1.48 114 1.53 113 1.54 111 1.54
 117  0.753  0.583  0.585- 112 1.51 185 1.53 136 1.54 206 1.56 214 2.85
 118  0.916  0.584  0.417- 136 1.53 114 1.53 119 1.54  98 1.54
 119  0.999  0.667  0.333-  69 1.53 118 1.54  31 1.54 124 1.54
 120  1.000  0.834  0.500- 125 1.53 141 1.53 138 1.53 124 1.53
 121  0.167  0.667  0.500- 103 1.53 104 1.54 124 1.54 123 1.54
 122  0.166  0.834  0.333-  55 1.53 124 1.54  53 1.54 126 1.54
 123  0.251  0.751  0.583- 198 1.52 193 1.54 121 1.54 128 1.54
 124  0.083  0.750  0.417- 120 1.53 122 1.54 121 1.54 119 1.54
 125  0.083  0.917  0.583- 142 1.53 193 1.53 120 1.53  75 1.53
 126  0.248  0.920  0.417-  75 1.52 128 1.52  81 1.54 122 1.54
 127  0.330  0.669  0.330-  53 1.52 131 1.53  39 1.56 104 1.56 214 2.64
 128  0.331  0.837  0.499- 131 1.49 126 1.52 132 1.54 123 1.54
 129  0.499  0.837  0.331- 131 1.49  63 1.52 133 1.54  61 1.54
 130  0.594  0.764  0.594- 135 1.49 201 1.49 206 1.53 214 2.18
 131  0.406  0.764  0.406- 129 1.49 128 1.49 127 1.53 214 2.18
 132  0.417  0.918  0.583- 150 1.53  83 1.53 128 1.54 201 1.54
 133  0.583  0.918  0.417-  89 1.53  83 1.53 129 1.54 135 1.54
 134  0.667  0.670  0.333- 139 1.52  61 1.52  47 1.52 214 2.59
 135  0.669  0.837  0.501- 130 1.49 140 1.52 133 1.54 139 1.54
 136  0.833  0.667  0.500- 118 1.53 117 1.54 138 1.54 139 1.54
 137  0.834  0.834  0.334- 141 1.53  69 1.54  71 1.54 139 1.54
 138  0.917  0.750  0.583- 120 1.53 209 1.54 136 1.54 190 1.54
 139  0.749  0.751  0.417- 134 1.52 137 1.54 136 1.54 135 1.54
 140  0.752  0.920  0.583-  91 1.52 135 1.52 158 1.54 209 1.54
 141  0.917  0.917  0.417-  73 1.53 137 1.53 120 1.53  91 1.53
 142  0.000  0.000  0.667- 125 1.53  93 1.53 147 1.53 213 1.53
 143  0.000  0.167  0.833- 165 1.53 148 1.53 147 1.53 162 1.54
 144  0.167  0.000  0.833- 147 1.53 146 1.53 196 1.53 197 1.53
 145  0.167  0.167  0.667-  77 1.53 147 1.53  79 1.53 149 1.53
 146  0.250  0.084  0.916- 144 1.53   9 1.53 151 1.53   4 1.53
 147  0.084  0.084  0.750- 144 1.53 142 1.53 145 1.53 143 1.53
 148  0.083  0.250  0.917-   4 1.53 143 1.53  25 1.54 168 1.54
 149  0.250  0.250  0.750- 168 1.53 174 1.53 151 1.53 145 1.53
 150  0.333  0.001  0.667- 132 1.53 197 1.53  77 1.54 155 1.54
 151  0.333  0.167  0.833- 155 1.53 146 1.53 156 1.53 149 1.53
 152  0.500  0.002  0.835- 205 1.52 154 1.53 204 1.53 155 1.54
 153  0.500  0.167  0.667- 155 1.53  85 1.53 157 1.54  87 1.54
 154  0.584  0.084  0.918- 152 1.53  12 1.53 159 1.53  17 1.53
 155  0.417  0.084  0.750- 151 1.53 153 1.53 150 1.54 152 1.54
 156  0.417  0.250  0.917- 176 1.52  12 1.53  33 1.53 151 1.53
 157  0.584  0.249  0.752- 159 1.52 182 1.53 153 1.54 176 1.54
 158  0.667  0.001  0.667- 163 1.53  85 1.54 140 1.54 205 1.54
 159  0.667  0.166  0.835- 157 1.52 154 1.53 164 1.53 163 1.53
 160  0.834  0.000  0.834- 163 1.53 162 1.53 213 1.54 212 1.54
 161  0.835  0.166  0.667-  95 1.52  93 1.53 165 1.53 163 1.53
 162  0.917  0.084  0.917-   1 1.53 160 1.53 143 1.54  20 1.54
 163  0.751  0.084  0.751- 158 1.53 160 1.53 161 1.53 159 1.53
 164  0.750  0.250  0.917-  20 1.53 159 1.53  41 1.54 184 1.54
 165  0.917  0.250  0.750- 143 1.53 161 1.53 166 1.54 184 1.54
 166  0.001  0.334  0.667- 115 1.53  79 1.53 165 1.54 171 1.54
 167  0.001  0.500  0.834- 189 1.53 172 1.53 171 1.54 186 1.54
 168  0.167  0.334  0.833- 170 1.53 171 1.53 149 1.53 148 1.54
 169  0.168  0.501  0.666- 103 1.53 101 1.53 173 1.54 171 1.54
 170  0.250  0.417  0.916- 168 1.53  33 1.54  28 1.54 175 1.54
 171  0.084  0.417  0.750- 168 1.53 166 1.54 167 1.54 169 1.54
 172  0.084  0.584  0.916- 167 1.53  28 1.53 192 1.54  49 1.54
 173  0.252  0.585  0.748- 198 1.52 175 1.54 169 1.54 192 1.55
 174  0.334  0.333  0.666-  87 1.53 149 1.53 101 1.54 179 1.54
 175  0.334  0.501  0.832- 180 1.53 179 1.53 173 1.54 170 1.54
 176  0.500  0.332  0.835- 156 1.52 179 1.54 157 1.54 178 1.54
 177  0.508  0.490  0.676- 179 1.48 181 1.51 109 1.52 214 2.25
 178  0.584  0.417  0.917-  41 1.53  36 1.53 183 1.54 176 1.54
 179  0.417  0.415  0.751- 177 1.48 175 1.53 176 1.54 174 1.54
 180  0.417  0.584  0.916- 200 1.53 175 1.53  57 1.54  36 1.54
 181  0.585  0.583  0.753- 177 1.51 183 1.53 200 1.54 206 1.56 214 2.85
 182  0.670  0.329  0.670- 109 1.50  95 1.53 157 1.53 187 1.54
 183  0.669  0.500  0.835- 188 1.53 181 1.53 178 1.54 187 1.54
 184  0.834  0.333  0.834- 187 1.53 186 1.53 164 1.54 165 1.54
 185  0.835  0.500  0.669- 189 1.53 117 1.53 115 1.54 187 1.54
 186  0.917  0.417  0.917-  25 1.53 184 1.53  44 1.54 167 1.54
 187  0.752  0.416  0.752- 184 1.53 185 1.54 183 1.54 182 1.54
 188  0.751  0.584  0.918- 183 1.53  44 1.53  65 1.54 208 1.54
 189  0.918  0.584  0.751- 185 1.53 167 1.53 190 1.54 208 1.54
 190  0.001  0.667  0.667- 195 1.53 103 1.54 189 1.54 138 1.54
 191  0.001  0.834  0.833- 196 1.53 213 1.53 210 1.54 195 1.54
 192  0.167  0.667  0.833- 194 1.54 195 1.54 172 1.54 173 1.55
 193  0.166  0.834  0.666- 125 1.53 195 1.54 197 1.54 123 1.54
 194  0.250  0.750  0.916-  57 1.53 192 1.54 199 1.54  52 1.54
 195  0.084  0.750  0.750- 190 1.53 192 1.54 193 1.54 191 1.54
 196  0.084  0.917  0.916- 191 1.53  52 1.53 144 1.53   1 1.54
 197  0.250  0.917  0.750- 150 1.53 144 1.53 193 1.54 199 1.54
 198  0.333  0.670  0.667- 203 1.52 123 1.52 173 1.52 214 2.59
 199  0.334  0.834  0.834- 204 1.53 194 1.54 197 1.54 203 1.54
 200  0.500  0.667  0.833- 180 1.53 181 1.54 202 1.54 203 1.54
 201  0.501  0.837  0.669- 130 1.49 205 1.52 132 1.54 203 1.54
 202  0.583  0.750  0.917-  60 1.53 207 1.54 200 1.54  65 1.54
 203  0.417  0.751  0.749- 198 1.52 199 1.54 200 1.54 201 1.54
 204  0.417  0.917  0.917-   9 1.53 199 1.53  60 1.53 152 1.53
 205  0.583  0.920  0.752- 152 1.52 201 1.52 158 1.54 207 1.54
 206  0.670  0.669  0.670- 211 1.52 130 1.53 117 1.56 181 1.56 214 2.64
 207  0.667  0.834  0.834- 212 1.53 202 1.54 211 1.54 205 1.54
 208  0.835  0.667  0.835- 210 1.52 211 1.53 189 1.54 188 1.54
 209  0.834  0.834  0.667- 213 1.53 138 1.54 211 1.54 140 1.54
 210  0.917  0.750  0.917- 208 1.52  49 1.53  68 1.54 191 1.54
 211  0.752  0.751  0.752- 206 1.52 208 1.53 207 1.54 209 1.54
 212  0.750  0.917  0.917- 207 1.53  68 1.53  17 1.53 160 1.54
 213  0.917  0.917  0.750- 209 1.53 191 1.53 142 1.53 160 1.54
 214  0.500  0.607  0.500- 131 2.18 130 2.18 106 2.25 108 2.25 177 2.25 112 2.25 110 2.48 109 2.48
                           198 2.59 134 2.59 127 2.64 206 2.64 104 2.85 181 2.85  39 2.85 117 2.85
 

IMPORTANT INFORMATION: All symmetrisations will be switched off!
NOSYMM: (Re-)initialisation of all symmetry stuff for point group C_1.


----------------------------------------------------------------------------------------

                                     Primitive cell                                     

  volume of cell :    1202.8529

  direct lattice vectors                    reciprocal lattice vectors
    10.635000229  0.000000000  0.000000000     0.094029147  0.000000000  0.000000000
     0.000000000 10.635000229  0.000000000     0.000000000  0.094029147  0.000000000
     0.000000000  0.000000000 10.635000229     0.000000000  0.000000000  0.094029147

  length of vectors
    10.635000229 10.635000229 10.635000229     0.094029147  0.094029147  0.094029147

  position of ions in fractional coordinates (direct lattice)
     0.999999991  0.000243177  0.999999987
     0.999618695  0.166940190  0.166516615
     0.166223984  0.000198520  0.166223982
     0.166516612  0.166940190  0.999618692
     0.249236633  0.083736850  0.249236636
     0.083106316  0.083682155  0.083106315
     0.082629089  0.250276461  0.249599649
     0.249599642  0.250276461  0.082629091
     0.333195939  0.000447023  0.999653064
     0.332748468  0.166279698  0.165365499
     0.499725081  0.001552244  0.165307484
     0.500000012  0.166752536  0.999999992
     0.583291556  0.083840564  0.249643630
     0.416475502  0.083846692  0.082383840
     0.415942907  0.248541050  0.248184240
     0.583230848  0.249646854  0.082844111
     0.666804077  0.000447023  0.000346911
     0.666667974  0.166995866  0.166686692
     0.833171817  0.000344192  0.166828171
     0.833483382  0.166940182  0.000381295
     0.916385742  0.083666383  0.249940535
     0.750059468  0.083666376  0.083614243
     0.749809324  0.250338002  0.250190677
     0.916507865  0.250417017  0.083492131
     0.999999997  0.333607623  0.999999999
     0.999089816  0.500353760  0.166322220
     0.165694660  0.333365066  0.165694667
     0.166322216  0.500353761  0.999089816
     0.248457683  0.416364267  0.248457688
     0.082825087  0.417041530  0.082825090
     0.081893883  0.583716012  0.248886537
     0.248886536  0.583716015  0.081893880
     0.333129752  0.333568351  0.999389857
     0.331225027  0.500214434  0.164512734
     0.499814446  0.331944589  0.165048570
     0.499999998  0.500364102  0.999999990
     0.582510894  0.415482806  0.249123159
     0.416272370  0.416686843  0.082553356
     0.415150016  0.582587147  0.247447613
     0.583175902  0.583670558  0.083763776
     0.666870249  0.333568343  0.000610130
     0.665956176  0.500542772  0.167701962
     0.832997595  0.333785397  0.167002407
     0.833677777  0.500353762  0.000910173
     0.915814931  0.417265159  0.250224884
     0.749775120  0.417265160  0.084185066
     0.747551009  0.584752445  0.252449002
     0.916345135  0.583853594  0.083654857
     0.999999990  0.667020613  0.999999988
     0.999492394  0.833642640  0.166552221
     0.165120332  0.667189175  0.165120331
     0.166552222  0.833642640  0.999492386
     0.247583026  0.750701516  0.247583021
     0.082644670  0.750486020  0.082644666
     0.082652803  0.917142047  0.249636111
     0.249636111  0.917142046  0.082652793
     0.333198631  0.667039980  0.999374455
     0.332900849  0.834216848  0.165580019
     0.499892791  0.667095732  0.166547441
     0.500000016  0.833876263  0.999999986
     0.583265994  0.750680345  0.250550851
     0.416502515  0.750368530  0.082986405
     0.416569628  0.919549023  0.247677917
     0.583342843  0.917441726  0.083062196
     0.666801374  0.667039998  0.000625522
     0.666103080  0.834315454  0.166448019
     0.832668032  0.666739913  0.167331962
     0.833447770  0.833642648  0.000507587
     0.916068904  0.750458157  0.250242001
     0.749757994  0.750458170  0.083931081
     0.749793292  0.917129744  0.250206701
     0.916492548  0.917042437  0.083507431
     0.999653073  0.000447022  0.333195939
     0.999999990  0.166752537  0.500000013
     0.165307497  0.001552237  0.499725087
     0.165365495  0.166279697  0.332748483
     0.249643643  0.083840561  0.583291555
     0.082383846  0.083846688  0.416475509
     0.082844105  0.249646855  0.583230858
     0.248184232  0.248541048  0.415942921
     0.332560983  0.001349282  0.332560980
     0.332832636  0.166605106  0.499739064
     0.500000000  0.000908020  0.500000000
     0.499739065  0.166605108  0.332832628
     0.583638445  0.083845123  0.583638436
     0.416361566  0.083845117  0.416361559
     0.416518438  0.249690707  0.583481585
     0.583481581  0.249690708  0.416518438
     0.666686650  0.000735383  0.333313339
     0.667167377  0.166605111  0.500260942
     0.834692503  0.001552244  0.500274924
     0.833313297  0.166995871  0.333332029
     0.917616142  0.083846691  0.583524506
     0.750356359  0.083840570  0.416708446
     0.751815763  0.248541056  0.584057099
     0.917155880  0.249646861  0.416769159
     0.999389857  0.333568357  0.333129760
     0.999999989  0.500364098  0.500000003
     0.165048568  0.331944593  0.499814466
     0.164512738  0.500214438  0.331225029
     0.249123147  0.415482798  0.582510915
     0.082553357  0.416686849  0.416272375
     0.083763780  0.583670558  0.583175899
     0.247447612  0.582587147  0.415150023
     0.330251371  0.329239436  0.330251383
     0.323614935  0.490174146  0.491763233
     0.499999998  0.331509615  0.500000006
     0.491763202  0.490174150  0.323614958
     0.587962262  0.410555277  0.587962259
     0.412037743  0.410555291  0.412037766
     0.666407943  0.333361795  0.333592068
     0.676385099  0.490174130  0.508236791
     0.834951425  0.331944600  0.500185563
     0.832298040  0.500542770  0.334043839
     0.917446620  0.416686849  0.583727632
     0.750876856  0.415482800  0.417489127
     0.752552386  0.582587148  0.584849998
     0.916236206  0.583670544  0.416824113
     0.999374462  0.667039973  0.333198633
     1.000000000  0.833876249  0.500000012
     0.166547451  0.667095734  0.499892784
     0.165580032  0.834216848  0.332900847
     0.250550854  0.750680345  0.583265998
     0.082986421  0.750368525  0.416502510
     0.083062208  0.917441716  0.583342843
     0.247677930  0.919549019  0.416569632
     0.330194277  0.669110719  0.330194275
     0.330899062  0.837143566  0.498813332
     0.498813320  0.837143565  0.330899062
     0.593674467  0.764263629  0.593674468
     0.406325546  0.764263589  0.406325537
     0.416688257  0.918087742  0.583311746
     0.583311742  0.918087746  0.416688256
     0.666541076  0.670020966  0.333458928
     0.669100927  0.837143549  0.501186686
     0.833452538  0.667095721  0.500107226
     0.833551969  0.834315441  0.333896919
     0.917013577  0.750368524  0.583497508
     0.749449148  0.750680339  0.416734014
     0.752322079  0.919549015  0.583430385
     0.916937789  0.917441717  0.416657173
     0.000346916  0.000447018  0.666804072
     0.000381296  0.166940182  0.833483380
     0.166828171  0.000344188  0.833171812
     0.166686696  0.166995863  0.666667978
     0.249940532  0.083666381  0.916385736
     0.083614244  0.083666373  0.750059467
     0.083492129  0.250417016  0.916507864
     0.250190678  0.250337999  0.749809329
     0.333313346  0.000735379  0.666686651
     0.333332034  0.166995865  0.833313296
     0.500274942  0.001552245  0.834692496
     0.500260953  0.166605112  0.667167371
     0.583524513  0.083846694  0.917616141
     0.416708458  0.083840567  0.750356351
     0.416769158  0.249646858  0.917155880
     0.584057100  0.248541056  0.751815767
     0.667439033  0.001349281  0.667439021
     0.667251537  0.166279696  0.834634493
     0.833776014  0.000198510  0.833776008
     0.834634492  0.166279694  0.667251534
     0.916893670  0.083682145  0.916893668
     0.750763367  0.083736845  0.750763363
     0.750400353  0.250276447  0.917370895
     0.917370891  0.250276448  0.750400354
     0.000610124  0.333568347  0.666870252
     0.000910173  0.500353763  0.833677779
     0.167002404  0.333785396  0.832997595
     0.167701962  0.500542772  0.665956182
     0.250224883  0.417265161  0.915814926
     0.084185063  0.417265162  0.749775123
     0.083654859  0.583853596  0.916345131
     0.252449003  0.584752452  0.747551004
     0.333592069  0.333361795  0.666407957
     0.334043835  0.500542780  0.832298038
     0.500185563  0.331944600  0.834951430
     0.508236793  0.490174128  0.676385103
     0.583727626  0.416686843  0.917446632
     0.417489125  0.415482810  0.750876862
     0.416824105  0.583670552  0.916236204
     0.584849987  0.582587149  0.752552400
     0.669748624  0.329239449  0.669748624
     0.668774960  0.500214444  0.835487250
     0.834305318  0.333365066  0.834305320
     0.835487242  0.500214447  0.668774975
     0.917174902  0.417041531  0.917174905
     0.751542302  0.416364274  0.751542310
     0.751113462  0.583716032  0.918106104
     0.918106104  0.583716031  0.751113466
     0.000625529  0.667039992  0.666801372
     0.000507590  0.833642647  0.833447764
     0.167331967  0.666739915  0.832668026
     0.166448027  0.834315445  0.666103077
     0.250242004  0.750458162  0.916068895
     0.083931084  0.750458168  0.749757992
     0.083507431  0.917042437  0.916492542
     0.250206700  0.917129741  0.749793288
     0.333458936  0.670020964  0.666541076
     0.333896926  0.834315444  0.833551958
     0.500107214  0.667095725  0.833452535
     0.501186681  0.837143550  0.669100939
     0.583497507  0.750368528  0.917013569
     0.416734010  0.750680340  0.749449145
     0.416657181  0.917441723  0.916937776
     0.583430396  0.919549011  0.752322073
     0.669805734  0.669110716  0.669805740
     0.667099167  0.834216842  0.834419966
     0.834879654  0.667189188  0.834879652
     0.834419971  0.834216843  0.667099156
     0.917355312  0.750486028  0.917355309
     0.752416970  0.750701521  0.752416970
     0.750363892  0.917142040  0.917347188
     0.917347192  0.917142042  0.750363886
     0.499999975  0.607454375  0.500000024

  ion indices of the primitive-cell ions
   primitive index   ion index
                 1           1
                 2           2
                 3           3
                 4           4
                 5           5
                 6           6
                 7           7
                 8           8
                 9           9
                10          10
                11          11
                12          12
                13          13
                14          14
                15          15
                16          16
                17          17
                18          18
                19          19
                20          20
                21          21
                22          22
                23          23
                24          24
                25          25
                26          26
                27          27
                28          28
                29          29
                30          30
                31          31
                32          32
                33          33
                34          34
                35          35
                36          36
                37          37
                38          38
                39          39
                40          40
                41          41
                42          42
                43          43
                44          44
                45          45
                46          46
                47          47
                48          48
                49          49
                50          50
                51          51
                52          52
                53          53
                54          54
                55          55
                56          56
                57          57
                58          58
                59          59
                60          60
                61          61
                62          62
                63          63
                64          64
                65          65
                66          66
                67          67
                68          68
                69          69
                70          70
                71          71
                72          72
                73          73
                74          74
                75          75
                76          76
                77          77
                78          78
                79          79
                80          80
                81          81
                82          82
                83          83
                84          84
                85          85
                86          86
                87          87
                88          88
                89          89
                90          90
                91          91
                92          92
                93          93
                94          94
                95          95
                96          96
                97          97
                98          98
                99          99
               100         100
               101         101
               102         102
               103         103
               104         104
               105         105
               106         106
               107         107
               108         108
               109         109
               110         110
               111         111
               112         112
               113         113
               114         114
               115         115
               116         116
               117         117
               118         118
               119         119
               120         120
               121         121
               122         122
               123         123
               124         124
               125         125
               126         126
               127         127
               128         128
               129         129
               130         130
               131         131
               132         132
               133         133
               134         134
               135         135
               136         136
               137         137
               138         138
               139         139
               140         140
               141         141
               142         142
               143         143
               144         144
               145         145
               146         146
               147         147
               148         148
               149         149
               150         150
               151         151
               152         152
               153         153
               154         154
               155         155
               156         156
               157         157
               158         158
               159         159
               160         160
               161         161
               162         162
               163         163
               164         164
               165         165
               166         166
               167         167
               168         168
               169         169
               170         170
               171         171
               172         172
               173         173
               174         174
               175         175
               176         176
               177         177
               178         178
               179         179
               180         180
               181         181
               182         182
               183         183
               184         184
               185         185
               186         186
               187         187
               188         188
               189         189
               190         190
               191         191
               192         192
               193         193
               194         194
               195         195
               196         196
               197         197
               198         198
               199         199
               200         200
               201         201
               202         202
               203         203
               204         204
               205         205
               206         206
               207         207
               208         208
               209         209
               210         210
               211         211
               212         212
               213         213
               214         214

----------------------------------------------------------------------------------------

 
 
 KPOINTS: 1 x 1 x 1 k-mesh (automatic generation o

Automatic generation of k-mesh.
 Grid dimensions read from file:
 generate k-points for:    1    1    1

 Generating k-lattice:

  Cartesian coordinates                     Fractional coordinates (reciprocal lattice)
     0.094029147  0.000000000  0.000000000     1.000000000  0.000000000  0.000000000
     0.000000000  0.094029147  0.000000000     0.000000000  1.000000000  0.000000000
     0.000000000  0.000000000  0.094029147     0.000000000  0.000000000  1.000000000

  Length of vectors
     0.094029147  0.094029147  0.094029147

  Shift w.r.t. Gamma in fractional coordinates (k-lattice)
     0.000000000  0.000000000  0.000000000

 
 Subroutine IBZKPT returns following result:
 ===========================================
 
 Found      1 irreducible k-points:
 
 Following reciprocal coordinates:
            Coordinates               Weight
  0.000000  0.000000  0.000000      1.000000
 
 Following cartesian coordinates:
            Coordinates               Weight
  0.000000  0.000000  0.000000      1.000000
 
 
 Subroutine IBZKPT_HF returns following result:
 ==============================================
 
 Found      1 k-points in 1st BZ
 the following      1 k-points will be used (e.g. in the exchange kernel)
 Following reciprocal coordinates:   # in IRBZ
  0.000000  0.000000  0.000000    1.00000000   1 t-inv F


--------------------------------------------------------------------------------------------------------




 Dimension of arrays:
   k-points           NKPTS =      1   k-points in BZ     NKDIM =      1   number of bands    NBANDS=    648
   number of dos      NEDOS =    301   number of ions     NIONS =    214
   non local maximal  LDIM  =      8   non local SUM 2l+1 LMDIM =     32
   total plane-waves  NPLWV = 884736
   max r-space proj   IRMAX =      1   max aug-charges    IRDMAX=  43738
   dimension x,y,z NGX =    96 NGY =   96 NGZ =   96
   dimension x,y,z NGXF=   192 NGYF=  192 NGZF=  192
   support grid    NGXF=   192 NGYF=  192 NGZF=  192
   ions per type =             213   1
   NGX,Y,Z   is equivalent  to a cutoff of  15.01, 15.01, 15.01 a.u.
   NGXF,Y,Z  is equivalent  to a cutoff of  30.01, 30.01, 30.01 a.u.

 SYSTEM =  unknown system                          
 POSCAR =  prv2                                    

 Startparameter for this run:
   NWRITE =      2    write-flag & timer
   PREC   = accura    normal or accurate (medium, high low for compatibility)
   ISTART =      1    job   : 0-new  1-cont  2-samecut
   ICHARG =      0    charge: 1-file 2-atom 10-const
   ISPIN  =      2    spin polarized calculation?
   LNONCOLLINEAR =      F non collinear calculations
   LSORBIT =      F    spin-orbit coupling
   INIWAV =      1    electr: 0-lowe 1-rand  2-diag
   LASPH  =      F    aspherical Exc in radial PAW
 Electronic Relaxation 1
   ENCUT  =  700.0 eV  51.45 Ry    7.17 a.u.  22.94 22.94 22.94*2*pi/ulx,y,z
   ENINI  =  700.0     initial cutoff
   ENAUG  = 1400.0 eV  augmentation charge cutoff
   NELM   =     60;   NELMIN=  2; NELMDL=  0     # of ELM steps 
   EDIFF  = 0.1E-05   stopping-criterion for ELM
   LREAL  =      F    real-space projection
   NLSPLINE    = F    spline interpolate recip. space projectors
   LCOMPAT=      F    compatible to vasp.4.4
   GGA_COMPAT  = T    GGA compatible to vasp.4.4-vasp.4.6
   LMAXPAW     = -100 max onsite density
   LMAXMIX     =    2 max onsite mixed and CHGCAR
   VOSKOWN=      0    Vosko Wilk Nusair interpolation
   ROPT   =    0.00000   0.00000
 Ionic relaxation
   EDIFFG = -.1E-01   stopping-criterion for IOM
   NSW    =      0    number of steps for IOM
   NBLOCK =      1;   KBLOCK =      1    inner block; outer block 
   IBRION =     -1    ionic relax: 0-MD 1-quasi-New 2-CG
   NFREE  =      1    steps in history (QN), initial steepest desc. (CG)
   ISIF   =      1    stress and relaxation
   IWAVPR =     10    prediction:  0-non 1-charg 2-wave 3-comb
   ISYM   =      0    0-nonsym 1-usesym 2-fastsym
   LCORR  =      T    Harris-Foulkes like correction to forces

   POTIM  = 0.2000    time-step for ionic-motion
   TEIN   =    0.0    initial temperature
   TEBEG  =    0.0;   TEEND  =   0.0 temperature during run
   SMASS  =  -3.00    Nose mass-parameter (am)
   estimated Nose-frequenzy (Omega)   =  0.10E-29 period in steps = 0.31E+47 mass=  -0.258E-26a.u.
   SCALEE = 1.0000    scale energy and forces
   NPACO  =    256;   APACO  = 16.0  distance and # of slots for P.C.
   PSTRESS=    0.0 pullay stress

  Mass of Ions in am
   POMASS =  12.01229.00
  Ionic Valenz
   ZVAL   =   4.00 13.00
  Atomic Wigner-Seitz radii
   RWIGS  =  -1.00 -1.00
  virtual crystal weights 
   VCA    =   1.00  1.00
   NELECT =     866.0000    total number of electrons
   NUPDOWN=      -1.0000    fix difference up-down

 DOS related values:
   EMIN   =  10.00;   EMAX   =-10.00  energy-range for DOS
   EFERMI =   0.00
   ISMEAR =     0;   SIGMA  =   0.01  broadening in eV -4-tet -1-fermi 0-gaus

 Electronic relaxation 2 (details)
   IALGO  =     58    algorithm
   LDIAG  =      T    sub-space diagonalisation (order eigenvalues)
   LSUBROT=      F    optimize rotation matrix (better conditioning)
   TURBO    =      0    0=normal 1=particle mesh
   IRESTART =      0    0=no restart 2=restart with 2 vectors
   NREBOOT  =      0    no. of reboots
   NMIN     =      0    reboot dimension
   EREF     =   0.00    reference energy to select bands
   IMIX   =      4    mixing-type and parameters
     AMIX     =   0.40;   BMIX     =  1.00
     AMIX_MAG =   1.60;   BMIX_MAG =  1.00
     AMIN     =   0.10
     WC   =   100.;   INIMIX=   1;  MIXPRE=   1;  MAXMIX= -45

 Intra band minimization:
   WEIMIN = 0.0000     energy-eigenvalue tresh-hold
   EBREAK =  0.39E-09  absolut break condition
   DEPER  =   0.30     relativ break condition  

   TIME   =   0.40     timestep for ELM

  volume/ion in A,a.u.               =       5.62        37.93
  Fermi-wavevector in a.u.,A,eV,Ry     =   1.467270  2.772738 29.291717  2.152880
  Thomas-Fermi vector in A             =   2.582908
 
 Write flags
   LWAVE        =      T    write WAVECAR
   LDOWNSAMPLE  =      F    k-point downsampling of WAVECAR
   LCHARG       =      T    write CHGCAR
   LVTOT        =      F    write LOCPOT, total local potential
   LVHAR        =      F    write LOCPOT, Hartree potential only
   LELF         =      F    write electronic localiz. function (ELF)
   LORBIT       =      0    0 simple, 1 ext, 2 COOP (PROOUT), +10 PAW based schemes


 Dipole corrections
   LMONO  =      F    monopole corrections only (constant potential shift)
   LDIPOL =      F    correct potential (dipole corrections)
   IDIPOL =      0    1-x, 2-y, 3-z, 4-all directions 
   EPSILON=  1.0000000 bulk dielectric constant

 Exchange correlation treatment:
   GGA     =    PE    GGA type
   LEXCH   =     8    internal setting for exchange type
   VOSKOWN=      0    Vosko Wilk Nusair interpolation
   EXXOEP  =     0    0=HF, 1=EXX-LHF (local Hartree Fock) 2=EXX OEP
   LHFCALC =     T    Hartree Fock is set to
   LSYMGRAD=     F    symmetrize gradient (conserves proper symmetry)
   PRECFOCK=normal    Normal, Fast or Accurate (Low or Medium for compatibility)
   LRHFCALC=     F    long range Hartree Fock
   LRSCOR  =     F    long range correlation only (use DFT for short range part)
   LTHOMAS =     F    Thomas Fermi screening in HF
   LMODELHF=     F    short range full HF, long range fraction AEXX
   LFOCKACE=     T    use Adeptively-Compressed-Exchange operator
   ENCUT4O =  -1.0   cutoff for four orbital integrals eV
   LMAXFOCK=     4    L truncation for augmentation on plane wave grid
   LMAXFOCKAE=  -1    L truncation for all-electron charge restoration on plane wave grid
   NMAXFOCKAE=   1    number of basis functions for all-electron charge restoration
   LFOCKAEDFT=     F  apply the AE augmentation even for DFT
   NKREDX  =     1    reduce k-point grid by
   NKREDY  =     1    reduce k-point grid by
   NKREDZ  =     1    reduce k-point grid by
   SHIFTRED=     F    shift reduced grid of Gamma
   HFKIDENT=     F    idential grid for each k-point
   ODDONLY =     F    use only odd q-grid points
   EVENONLY=     F    use only even q-grid points
   HFALPHA =   -1.0000 decay constant for conv. correction
   MCALPHA =    0.0000 extent of test-charge in conv. correction in multipole expansion
   AEXX    =    0.2500 exact exchange contribution
   HFSCREEN=    0.2000 screening length (either q_TF or 0.3 A-1)
   HFSCREENC=   0.2000 screening length for correlation (either q_TF or 0.3 A-1)
   HFRCUT  =    0.0000 spherical cutoff for potential kernel
   ALDAX   =    0.7500 LDA exchange part
   AGGAX   =    0.7500 GGA exchange part
   ALDAC   =    1.0000 LDA correlation
   AGGAC   =    1.0000 GGA correlation
   ENCUTFOCK=  -1.0 apply spherical cutoff to Coloumb kernel
   NBANDSGWLOW=     1    first orbital included in HF term
   NBLOCK_FOCK=    64    blocking factor in FOCK_ACC
 Linear response parameters
   LEPSILON=     F    determine dielectric tensor
   LRPA    =     F    only Hartree local field effects (RPA)
   LNABLA  =     F    use nabla operator in PAW spheres
   LVEL    =     F    velocity operator in full k-point grid
   LINTERFAST=   F  fast interpolation
   KINTER  =     0    interpolate to denser k-point grid
   CSHIFT  =0.1000    complex shift for real part using Kramers Kronig
   OMEGAMAX=  -1.0    maximum frequency
   DEG_THRESHOLD= 0.2000000E-02 threshold for treating states as degnerate
   RTIME   =   -0.100 relaxation time in fs
  (WPLASMAI=    0.000 imaginary part of plasma frequency in eV, 0.658/RTIME)
   DFIELD  = 0.0000000 0.0000000 0.0000000 field for delta impulse in time
 
 Orbital magnetization related:
   ORBITALMAG=     F  switch on orbital magnetization
   LCHIMAG   =     F  perturbation theory with respect to B field
   DQ        =  0.001000  dq finite difference perturbation B field
   LLRAUG    =     F  two centre corrections for induced B field



--------------------------------------------------------------------------------------------------------


 Static calculation
 charge density and potential will be updated during run
 spin polarized calculation
 Conjugate gradient for all bands (Freysoldt, et al. PRB 79, 241103 (2009))
 preconditioned conjugated gradient                                        
 perform sub-space diagonalisation
    before iterative eigenvector-optimisation
 modified Broyden-mixing scheme, WC =      100.0
 initial mixing is a Kerker type mixing with AMIX =  0.4000 and BMIX =      1.0000
 Hartree-type preconditioning will be used
 using additional bands          215
 reciprocal scheme for non local part
 use partial core corrections
 no Harris-corrections to forces 
 use gradient corrections 
 use of overlap-Matrix (Vanderbilt PP)
 Gauss-broadening in eV      SIGMA  =   0.01


--------------------------------------------------------------------------------------------------------


  energy-cutoff  :      700.00
  volume of cell :     1202.85
      direct lattice vectors                 reciprocal lattice vectors
    10.635000229  0.000000000  0.000000000     0.094029147  0.000000000  0.000000000
     0.000000000 10.635000229  0.000000000     0.000000000  0.094029147  0.000000000
     0.000000000  0.000000000 10.635000229     0.000000000  0.000000000  0.094029147

  length of vectors
    10.635000229 10.635000229 10.635000229     0.094029147  0.094029147  0.094029147


 
 old parameters found on file WAVECAR:
  energy-cutoff  :      370.00
  volume of cell :     1202.85
      direct lattice vectors                 reciprocal lattice vectors
    10.635000229  0.000000000  0.000000000     0.094029147  0.000000000  0.000000000
     0.000000000 10.635000229  0.000000000     0.000000000  0.094029147  0.000000000
     0.000000000  0.000000000 10.635000229     0.000000000  0.000000000  0.094029147

  length of vectors

 
 k-points in units of 2pi/SCALE and weight: 1 x 1 x 1 k-mesh (automatic generation o
   0.00000000  0.00000000  0.00000000       1.000
 
 k-points in reciprocal lattice and weights: 1 x 1 x 1 k-mesh (automatic generation o
   0.00000000  0.00000000  0.00000000       1.000
 
 position of ions in fractional coordinates (direct lattice) 
   0.99999999  0.00024318  0.99999999
   0.99961869  0.16694019  0.16651661
   0.16622398  0.00019852  0.16622398
   0.16651661  0.16694019  0.99961869
   0.24923663  0.08373685  0.24923664
   0.08310632  0.08368216  0.08310631
   0.08262909  0.25027646  0.24959965
   0.24959964  0.25027646  0.08262909
   0.33319594  0.00044702  0.99965306
   0.33274847  0.16627970  0.16536550
   0.49972508  0.00155224  0.16530748
   0.50000001  0.16675254  0.99999999
   0.58329156  0.08384056  0.24964363
   0.41647550  0.08384669  0.08238384
   0.41594291  0.24854105  0.24818424
   0.58323085  0.24964685  0.08284411
   0.66680408  0.00044702  0.00034691
   0.66666797  0.16699587  0.16668669
   0.83317182  0.00034419  0.16682817
   0.83348338  0.16694018  0.00038130
   0.91638574  0.08366638  0.24994053
   0.75005947  0.08366638  0.08361424
   0.74980932  0.25033800  0.25019068
   0.91650787  0.25041702  0.08349213
   1.00000000  0.33360762  1.00000000
   0.99908982  0.50035376  0.16632222
   0.16569466  0.33336507  0.16569467
   0.16632222  0.50035376  0.99908982
   0.24845768  0.41636427  0.24845769
   0.08282509  0.41704153  0.08282509
   0.08189388  0.58371601  0.24888654
   0.24888654  0.58371601  0.08189388
   0.33312975  0.33356835  0.99938986
   0.33122503  0.50021443  0.16451273
   0.49981445  0.33194459  0.16504857
   0.50000000  0.50036410  0.99999999
   0.58251089  0.41548281  0.24912316
   0.41627237  0.41668684  0.08255336
   0.41515002  0.58258715  0.24744761
   0.58317590  0.58367056  0.08376378
   0.66687025  0.33356834  0.00061013
   0.66595618  0.50054277  0.16770196
   0.83299760  0.33378540  0.16700241
   0.83367778  0.50035376  0.00091017
   0.91581493  0.41726516  0.25022488
   0.74977512  0.41726516  0.08418507
   0.74755101  0.58475245  0.25244900
   0.91634513  0.58385359  0.08365486
   0.99999999  0.66702061  0.99999999
   0.99949239  0.83364264  0.16655222
   0.16512033  0.66718917  0.16512033
   0.16655222  0.83364264  0.99949239
   0.24758303  0.75070152  0.24758302
   0.08264467  0.75048602  0.08264467
   0.08265280  0.91714205  0.24963611
   0.24963611  0.91714205  0.08265279
   0.33319863  0.66703998  0.99937446
   0.33290085  0.83421685  0.16558002
   0.49989279  0.66709573  0.16654744
   0.50000002  0.83387626  0.99999999
   0.58326599  0.75068034  0.25055085
   0.41650252  0.75036853  0.08298641
   0.41656963  0.91954902  0.24767792
   0.58334284  0.91744173  0.08306220
   0.66680137  0.66704000  0.00062552
   0.66610308  0.83431545  0.16644802
   0.83266803  0.66673991  0.16733196
   0.83344777  0.83364265  0.00050759
   0.91606890  0.75045816  0.25024200
   0.74975799  0.75045817  0.08393108
   0.74979329  0.91712974  0.25020670
   0.91649255  0.91704244  0.08350743
   0.99965307  0.00044702  0.33319594
   0.99999999  0.16675254  0.50000001
   0.16530750  0.00155224  0.49972509
   0.16536549  0.16627970  0.33274848
   0.24964364  0.08384056  0.58329155
   0.08238385  0.08384669  0.41647551
   0.08284411  0.24964685  0.58323086
   0.24818423  0.24854105  0.41594292
   0.33256098  0.00134928  0.33256098
   0.33283264  0.16660511  0.49973906
   0.50000000  0.00090802  0.50000000
   0.49973907  0.16660511  0.33283263
   0.58363845  0.08384512  0.58363844
   0.41636157  0.08384512  0.41636156
   0.41651844  0.24969071  0.58348158
   0.58348158  0.24969071  0.41651844
   0.66668665  0.00073538  0.33331334
   0.66716738  0.16660511  0.50026094
   0.83469250  0.00155224  0.50027492
   0.83331330  0.16699587  0.33333203
   0.91761614  0.08384669  0.58352451
   0.75035636  0.08384057  0.41670845
   0.75181576  0.24854106  0.58405710
   0.91715588  0.24964686  0.41676916
   0.99938986  0.33356836  0.33312976
   0.99999999  0.50036410  0.50000000
   0.16504857  0.33194459  0.49981447
   0.16451274  0.50021444  0.33122503
   0.24912315  0.41548280  0.58251091
   0.08255336  0.41668685  0.41627237
   0.08376378  0.58367056  0.58317590
   0.24744761  0.58258715  0.41515002
   0.33025137  0.32923944  0.33025138
   0.32361494  0.49017415  0.49176323
   0.50000000  0.33150961  0.50000001
   0.49176320  0.49017415  0.32361496
   0.58796226  0.41055528  0.58796226
   0.41203774  0.41055529  0.41203777
   0.66640794  0.33336179  0.33359207
   0.67638510  0.49017413  0.50823679
   0.83495142  0.33194460  0.50018556
   0.83229804  0.50054277  0.33404384
   0.91744662  0.41668685  0.58372763
   0.75087686  0.41548280  0.41748913
   0.75255239  0.58258715  0.58485000
   0.91623621  0.58367054  0.41682411
   0.99937446  0.66703997  0.33319863
   1.00000000  0.83387625  0.50000001
   0.16654745  0.66709573  0.49989278
   0.16558003  0.83421685  0.33290085
   0.25055085  0.75068034  0.58326600
   0.08298642  0.75036853  0.41650251
   0.08306221  0.91744172  0.58334284
   0.24767793  0.91954902  0.41656963
   0.33019428  0.66911072  0.33019427
   0.33089906  0.83714357  0.49881333
   0.49881332  0.83714357  0.33089906
   0.59367447  0.76426363  0.59367447
   0.40632555  0.76426359  0.40632554
   0.41668826  0.91808774  0.58331175
   0.58331174  0.91808775  0.41668826
   0.66654108  0.67002097  0.33345893
   0.66910093  0.83714355  0.50118669
   0.83345254  0.66709572  0.50010723
   0.83355197  0.83431544  0.33389692
   0.91701358  0.75036852  0.58349751
   0.74944915  0.75068034  0.41673401
   0.75232208  0.91954901  0.58343038
   0.91693779  0.91744172  0.41665717
   0.00034692  0.00044702  0.66680407
   0.00038130  0.16694018  0.83348338
   0.16682817  0.00034419  0.83317181
   0.16668670  0.16699586  0.66666798
   0.24994053  0.08366638  0.91638574
   0.08361424  0.08366637  0.75005947
   0.08349213  0.25041702  0.91650786
   0.25019068  0.25033800  0.74980933
   0.33331335  0.00073538  0.66668665
   0.33333203  0.16699587  0.83331330
   0.50027494  0.00155224  0.83469250
   0.50026095  0.16660511  0.66716737
   0.58352451  0.08384669  0.91761614
   0.41670846  0.08384057  0.75035635
   0.41676916  0.24964686  0.91715588
   0.58405710  0.24854106  0.75181577
   0.66743903  0.00134928  0.66743902
   0.66725154  0.16627970  0.83463449
   0.83377601  0.00019851  0.83377601
   0.83463449  0.16627969  0.66725153
   0.91689367  0.08368214  0.91689367
   0.75076337  0.08373685  0.75076336
   0.75040035  0.25027645  0.91737089
   0.91737089  0.25027645  0.75040035
   0.00061012  0.33356835  0.66687025
   0.00091017  0.50035376  0.83367778
   0.16700240  0.33378540  0.83299760
   0.16770196  0.50054277  0.66595618
   0.25022488  0.41726516  0.91581493
   0.08418506  0.41726516  0.74977512
   0.08365486  0.58385360  0.91634513
   0.25244900  0.58475245  0.74755100
   0.33359207  0.33336179  0.66640796
   0.33404384  0.50054278  0.83229804
   0.50018556  0.33194460  0.83495143
   0.50823679  0.49017413  0.67638510
   0.58372763  0.41668684  0.91744663
   0.41748912  0.41548281  0.75087686
   0.41682410  0.58367055  0.91623620
   0.58484999  0.58258715  0.75255240
   0.66974862  0.32923945  0.66974862
   0.66877496  0.50021444  0.83548725
   0.83430532  0.33336507  0.83430532
   0.83548724  0.50021445  0.66877497
   0.91717490  0.41704153  0.91717490
   0.75154230  0.41636427  0.75154231
   0.75111346  0.58371603  0.91810610
   0.91810610  0.58371603  0.75111347
   0.00062553  0.66703999  0.66680137
   0.00050759  0.83364265  0.83344776
   0.16733197  0.66673991  0.83266803
   0.16644803  0.83431545  0.66610308
   0.25024200  0.75045816  0.91606890
   0.08393108  0.75045817  0.74975799
   0.08350743  0.91704244  0.91649254
   0.25020670  0.91712974  0.74979329
   0.33345894  0.67002096  0.66654108
   0.33389693  0.83431544  0.83355196
   0.50010721  0.66709572  0.83345253
   0.50118668  0.83714355  0.66910094
   0.58349751  0.75036853  0.91701357
   0.41673401  0.75068034  0.74944914
   0.41665718  0.91744172  0.91693778
   0.58343040  0.91954901  0.75232207
   0.66980573  0.66911072  0.66980574
   0.66709917  0.83421684  0.83441997
   0.83487965  0.66718919  0.83487965
   0.83441997  0.83421684  0.66709916
   0.91735531  0.75048603  0.91735531
   0.75241697  0.75070152  0.75241697
   0.75036389  0.91714204  0.91734719
   0.91734719  0.91714204  0.75036389
   0.49999998  0.60745437  0.50000002
 
 position of ions in cartesian coordinates  (Angst):
  10.63500013  0.00258619 10.63500010
  10.63094505  1.77540896  1.77090423
   1.76779210  0.00211126  1.76779209
   1.77090421  1.77540895 10.63094502
   2.65063165  0.89054142  2.65063169
   0.88383569  0.88995974  0.88383568
   0.87876038  2.66169022  2.65449233
   2.65449225  2.66169022  0.87876040
   3.54353889  0.00475409 10.63131057
   3.53878004  1.76838463  1.75866212
   5.31457635  0.01650811  1.75804513
   5.31750024  1.77341326 10.63500014
   6.20330583  0.89164442  2.65496007
   4.42921706  0.89170959  0.87615216
   4.42355291  2.64323412  2.63943945
   6.20266021  2.65499434  0.88104714
   7.09146151  0.00475409  0.00368940
   7.09001406  1.77600107  1.77271301
   8.86078247  0.00366048  1.77421764
   8.86409596  1.77540888  0.00405508
   9.74576258  0.88979200  2.65811765
   7.97688262  0.88979192  0.88923750
   7.97422234  2.66234471  2.66077790
   9.74706136  2.66318503  0.88793883
  10.63500020  3.54791714 10.63500022
  10.62532042  5.32126235  1.76883684
   1.76216275  3.54533755  1.76216283
   1.76883681  5.32126237 10.62532042
   2.64234751  4.42803408  2.64234757
   0.88084481  4.43523677  0.88084485
   0.87094147  6.20781992  2.64690838
   2.64690837  6.20781995  0.87094143
   3.54283499  3.54749949 10.62851136
   3.52257824  5.31978062  1.74959297
   5.31552674  3.53023078  1.75529158
   5.31750010  5.32137234 10.63500012
   6.19500350  4.41865973  2.64942485
   4.42705675  4.43146467  0.87795496
   4.41512052  6.19581444  2.63160542
   6.20207585  6.20733652  0.89082778
   7.09216525  3.54749940  0.00648873
   7.08244409  5.32327249  1.78351040
   8.85892962  3.54980777  1.77607064
   8.86616335  5.32126238  0.00967969
   9.73969200  4.43761506  2.66114170
   7.97385857  4.43761507  0.89530819
   7.95020515  6.21884239  2.68479520
   9.74533072  6.20928311  0.88966942
  10.63500013  7.09376437 10.63500010
  10.62960184  8.86578966  1.77128291
   1.75605477  7.09555703  1.75605476
   1.77128292  8.86578967 10.62960175
   2.63304554  7.98371079  2.63304549
   0.87892609  7.98141899  0.87892605
   0.87901257  9.75380588  2.65488010
   2.65488010  9.75380587  0.87901247
   3.54356751  7.09397034 10.62834756
   3.54040060  8.87189637  1.76094354
   5.31635995  7.09456326  1.77123207
   5.31750028  8.86827424 10.63500008
   6.20303398  7.98348564  2.66460836
   4.42950434  7.98016949  0.88256044
   4.43021809  9.77940407  2.63405470
   6.20385127  9.75699297  0.88336648
   7.09143276  7.09397053  0.00665243
   7.08400640  8.87294505  1.77017472
   8.85542471  7.09077913  1.77957546
   8.86371722  8.86578975  0.00539818
   9.74239301  7.98112267  2.66132374
   7.97367643  7.98112281  0.89260706
   7.97405183  9.75367504  2.66094832
   9.74689845  9.75274653  0.88810155
  10.63131066  0.00475408  3.54353889
  10.63500012  1.77341327  5.31750025
   1.75804527  0.01650804  5.31457642
   1.75866208  1.76838461  3.53878019
   2.65496020  0.89164439  6.20330582
   0.87615222  0.89170955  4.42921714
   0.88104708  2.65499436  6.20266031
   2.63943937  2.64323410  4.42355306
   3.53678613  0.01434962  3.53678610
   3.53967516  1.77184534  5.31472506
   5.31750012  0.00965679  5.31750012
   5.31472507  1.77184536  3.53967508
   6.20699500  0.89169291  6.20699490
   4.42800535  0.89169284  4.42800527
   4.42967368  2.65546072  6.20532678
   6.20532675  2.65546073  4.42967369
   7.09021268  0.00782080  3.54478744
   7.09532521  1.77184539  5.32027524
   8.87695496  0.01650811  5.32042393
   8.86228711  1.77600113  3.54498621
   9.75884789  0.89170958  6.20578325
   7.98004005  0.89164448  4.43169442
   7.99556081  2.64323419  6.21144739
   9.75395300  2.65499443  4.43234010
  10.62851135  3.54749955  3.54283507
  10.63500012  5.32137230  5.31750015
   1.75529156  3.53023082  5.31552696
   1.74959300  5.31978066  3.52257826
   2.64942473  4.41865965  6.19500371
   0.87795497  4.43146473  4.42705680
   0.89082782  6.20733652  6.20207582
   2.63160541  6.19581444  4.41512059
   3.51222341  3.50146148  3.51222354
   3.44164491  5.21300215  5.22990209
   5.31750009  3.52560483  5.31750018
   5.22990177  5.21300220  3.44164516
   6.25297879  4.36625546  6.25297876
   4.38202149  4.36625561  4.38202173
   7.08724862  3.54530276  3.54775172
   7.19335568  5.21300199  5.40509839
   8.87970859  3.53023090  5.31947358
   8.85148985  5.32327248  3.55255631
   9.75704502  4.43146473  6.20794350
   7.98557554  4.41865968  4.43999696
   8.00339480  6.19581445  6.21987986
   9.74417226  6.20733637  4.43292453
  10.62834763  7.09397026  3.54356754
  10.63500023  8.86827410  5.31750025
   1.77123218  7.09456328  5.31635987
   1.76094368  8.87189637  3.54040058
   2.66460839  7.98348564  6.20303402
   0.88256060  7.98016944  4.42950429
   0.88336660  9.75699286  6.20385127
   2.63405484  9.77940403  4.43021813
   3.51161621  7.11599265  3.51161619
   3.51911160  8.90302201  5.30487990
   5.30487978  8.90302201  3.51911160
   6.31372809  8.12794387  6.31372811
   4.32127228  8.12794344  4.32127218
   4.43147971  9.76386334  6.20352055
   6.20352051  9.76386339  4.43147969
   7.08866450  7.12567313  3.54633578
   7.11588851  8.90302184  5.33012052
   8.86376794  7.09456315  5.31864046
   8.86482538  8.87294491  3.55099381
   9.75243960  7.98016942  6.20549614
   7.97039186  7.98348557  4.43196634
   8.00094549  9.77940398  6.20478228
   9.75163360  9.75699287  4.43114913
   0.00368945  0.00475404  7.09146145
   0.00405508  1.77540887  8.86409593
   1.77421763  0.00366044  8.86078241
   1.77271305  1.77600104  7.09001410
   2.65811762  0.88979198  9.74576252
   0.88923750  0.88979189  7.97688260
   0.88793881  2.66318503  9.74706135
   2.66077792  2.66234468  7.97422238
   3.54478751  0.00782076  7.09021268
   3.54498625  1.77600106  8.86228710
   5.32042413  0.01650812  8.87695488
   5.32027535  1.77184541  7.09532514
   6.20578333  0.89170961  9.75884787
   4.43169455  0.89164445  7.98003996
   4.43234009  2.65499439  9.75395299
   6.21144739  2.64323419  7.99556085
   7.09821427  0.01434960  7.09821415
   7.09622024  1.76838461  8.87633802
   8.86720810  0.00211115  8.86720803
   8.87633801  1.76838459  7.09622021
   9.75116439  0.88995963  9.75116437
   7.98436858  0.89054137  7.98436854
   7.98050793  2.66169007  9.75623968
   9.75623963  2.66169008  7.98050793
   0.00648866  3.54749945  7.09216528
   0.00967970  5.32126239  8.86616337
   1.77607061  3.54980776  8.85892961
   1.78351040  5.32327249  7.08244415
   2.66114168  4.43761508  9.73969195
   0.89530816  4.43761510  7.97385860
   0.88966944  6.20928312  9.74533068
   2.68479521  6.21884246  7.95020510
   3.54775173  3.54530276  7.08724878
   3.55255626  5.32327258  8.85148982
   5.31947358  3.53023090  8.87970865
   5.40509841  5.21300196  7.19335573
   6.20794343  4.43146467  9.75704514
   4.43999694  4.41865978  7.98557560
   4.43292445  6.20733645  9.74417224
   6.21987974  6.19581446  8.00339494
   7.12277677  3.50146161  7.12277677
   7.11242185  5.31978073  8.88540710
   8.87283724  3.54533756  8.87283727
   8.88540701  5.31978076  7.11242201
   9.75415529  4.43523678  9.75415532
   7.99265255  4.42803415  7.99265264
   7.98809184  6.20782014  9.76405863
   9.76405863  6.20782012  7.98809188
   0.00665250  7.09397047  7.09143274
   0.00539822  8.86578974  8.86371717
   1.77957551  7.09077914  8.85542465
   1.77017480  8.87294495  7.08400638
   2.66132377  7.98112272  9.74239291
   0.89260710  7.98112279  7.97367642
   0.88810155  9.75274652  9.74689840
   2.66094832  9.75367501  7.97405179
   3.54633586  7.12567311  7.08866450
   3.55099388  8.87294494  8.86482527
   5.31864033  7.09456318  8.86376790
   5.33012047  8.90302184  7.11588864
   6.20549612  7.98016947  9.75243952
   4.43196630  7.98348559  7.97039183
   4.43114921  9.75699294  9.75163346
   6.20478239  9.77940394  8.00094542
   7.12338413  7.11599262  7.12338420
   7.09459979  8.87189631  8.87405653
   8.87894531  7.09555716  8.87894529
   8.87405658  8.87189631  7.09459967
   9.75607396  7.98141908  9.75607392
   8.00195465  7.98371084  8.00195465
   7.98012017  9.75380581  9.75598756
   9.75598760  9.75380583  7.98012010
   5.31749985  6.46027741  5.31750037
 


--------------------------------------------------------------------------------------------------------


 use parallel FFT for orbitals z direction half grid
 k-point   1 :   0.0000 0.0000 0.0000  plane waves:   25343

 maximum and minimum number of plane-waves per node :      3174     3163

 maximum number of plane-waves:     25343
 maximum index in each direction: 
   IXMAX=   22   IYMAX=   22   IZMAX=   22
   IXMIN=  -22   IYMIN=  -22   IZMIN=    0


 parallel 3D FFT for wavefunctions:
    minimum data exchange during FFTs selected (reduces bandwidth)
 parallel 3D FFT for charge:
    minimum data exchange during FFTs selected (reduces bandwidth)


 FFT grid for exact exchange (Hartree Fock) 
  NGX = 70; NGY = 70; NGZ = 70

 use parallel FFT for orbitals z direction half grid
 
 Radii for the augmentation spheres in the non-local exchange
 for species   1 augmentation radius   0.874 (default was   0.699)
       energy cutoff for augmentation   2800.0
 for species   2 augmentation radius   1.496 (default was   1.197)
       energy cutoff for augmentation   2800.0

 real space projection operators:
  total allocation   :      12728.12 KBytes
  max/ min on nodes  :       1656.48       1464.97

 Maximum index for augmentation-charges in exchange          503
  SETUP_FOCK is finished

 total amount of memory used by VASP MPI-rank0   160555. kBytes
=======================================================================

   base      :      30000. kBytes
   nonl-proj :      12481. kBytes
   fftplans  :      13797. kBytes
   grid      :      32673. kBytes
   one-center:       1327. kBytes
   HF        :         73. kBytes
   nonlr-proj:       1963. kBytes
   wavefun   :      68241. kBytes
 
     INWAV:  cpu time    0.5733: real time    0.6787
 Broyden mixing: mesh for mixing (old mesh)
   NGX = 45   NGY = 45   NGZ = 45
  (NGX  =192   NGY  =192   NGZ  =192)
  gives a total of  91125 points

 charge density for first step will be calculated from the start-wavefunctions


--------------------------------------------------------------------------------------------------------


 Maximum index for augmentation-charges         1463 (set IRDMAX)


--------------------------------------------------------------------------------------------------------


 initial charge from wavefunction
 First call to EWALD:  gamma=   0.167
 Maximum number of real-space cells 3x 3x 3
 Maximum number of reciprocal cells 3x 3x 3

    FEWALD:  cpu time    0.0101: real time    0.0101


--------------------------------------- Iteration      1(   1)  ---------------------------------------


    POTLOK:  cpu time    0.7706: real time    0.7724
    SETDIJ:  cpu time    9.5314: real time    9.5541
    TRIAL :  cpu time  355.5102: real time  356.4226
    CORREC:  cpu time  374.7134: real time  375.6728
    CHARGE:  cpu time    0.3606: real time    0.3615
    --------------------------------------------
      LOOP:  cpu time  740.9044: real time  742.8032

 eigenvalue-minimisations  :     0
 total energy-change (2. order) :-0.2225427E+04  (-0.8879050E+01)
 number of electron     865.9999914 magnetization       2.0000000
 augmentation part       18.0533048 magnetization       0.2309666

 Free energy of the ion-electron system (eV)
  ---------------------------------------------------
  alpha Z        PSCENC =      3277.45300731
  Ewald energy   TEWEN  =    -38582.05105446
  -Hartree energ DENC   =     -2850.43511861
  -exchange      EXHF   =      2002.77593682
  -V(xc)+E(xc)   XCENC  =      2343.84993996
  PAW double counting   =     98692.14037944   -98770.03409365
  entropy T*S    EENTRO =        -0.00000000
  eigenvalues    EBANDS =      -486.66751687
  atomic energy  EATOM  =     32147.54118438
  ---------------------------------------------------
  free energy    TOTEN  =     -2225.42733567 eV

  energy without entropy =    -2225.42733567  energy(sigma->0) =    -2225.42733567
  exchange ACFDT corr.  =         0.00000000  see jH, gK, PRB 81, 115126


--------------------------------------------------------------------------------------------------------




--------------------------------------- Iteration      1(   2)  ---------------------------------------


    POTLOK:  cpu time    0.7802: real time    0.7821
    SETDIJ:  cpu time    9.7769: real time    9.8033
    TRIAL :  cpu time  363.2222: real time  364.1504
    CORREC:  cpu time  362.4352: real time  363.3650
    CHARGE:  cpu time    0.3582: real time    0.3591
    --------------------------------------------
      LOOP:  cpu time  736.5738: real time  738.4610

 eigenvalue-minimisations  :     0
 total energy-change (2. order) :-0.8880621E+01  (-0.4800479E-01)
 number of electron     865.9999914 magnetization       2.0000000
 augmentation part       18.1484247 magnetization       0.2315436

 Free energy of the ion-electron system (eV)
  ---------------------------------------------------
  alpha Z        PSCENC =      3277.45300731
  Ewald energy   TEWEN  =    -38582.05105446
  -Hartree energ DENC   =     -2853.42373827
  -exchange      EXHF   =      2002.43659802
  -V(xc)+E(xc)   XCENC  =      2343.86112258
[...]
 100       0.007    -0.016     0.009     0.068     0.086     0.083
 101       0.033     0.006    -0.039     0.073    -0.016    -0.015
 102       0.036    -0.017    -0.019     0.009     0.005     0.006
 103       0.043    -0.022    -0.021    -0.003    -0.005     0.004
 104       0.034    -0.050     0.016    -0.012     0.055    -0.015
 105      -0.013     0.026    -0.013     0.237     0.219     0.237
 106      -0.012     0.079    -0.067     1.242     1.129     1.224
 107       0.010    -0.021     0.010    -0.000     0.123     0.000
 108      -0.067     0.079    -0.012     1.224     1.129     1.242
 109      -0.092     0.183    -0.092    -0.091     0.068    -0.091
 110      -0.092     0.183    -0.092     0.091     0.068     0.091
 111      -0.018     0.037    -0.018    -0.027     0.004     0.027
 112      -0.012     0.079    -0.067    -1.242     1.129    -1.224
 113       0.006     0.006    -0.012    -0.093     0.074    -0.084
 114       0.031    -0.019    -0.012    -0.007    -0.036    -0.018
 115       0.036    -0.017    -0.019    -0.009     0.005    -0.006
 116       0.033     0.006    -0.039    -0.073    -0.016     0.015
 117       0.034    -0.050     0.016     0.012     0.055     0.015
 118       0.043    -0.022    -0.021     0.003    -0.005    -0.004
 119       0.021    -0.010    -0.011    -0.004    -0.002    -0.009
 120       0.014    -0.005    -0.009     0.000     0.001    -0.000
 121       0.027    -0.015    -0.013    -0.033    -0.018     0.031
 122       0.011    -0.001    -0.009    -0.012     0.010    -0.008
 123       0.069    -0.021    -0.048    -0.064     0.012    -0.004
 124       0.022    -0.007    -0.015    -0.005     0.003    -0.001
 125       0.012     0.007    -0.019    -0.020     0.007    -0.008
 126      -0.005     0.014    -0.010    -0.025     0.019    -0.024
 127      -0.006     0.011    -0.006    -0.027     0.044    -0.027
 128      -0.024     0.043    -0.019    -0.026    -0.009    -0.006
 129      -0.019     0.043    -0.024    -0.006    -0.009    -0.026
 130      -0.101     0.201    -0.101     0.383     0.275     0.383
 131      -0.101     0.201    -0.101    -0.383     0.275    -0.383
 132      -0.024     0.048    -0.024    -0.005    -0.008     0.005
 133      -0.024     0.048    -0.024     0.005    -0.008    -0.005
 134      -0.025     0.049    -0.025     0.594    -0.577    -0.594
 135      -0.024     0.043    -0.019     0.026    -0.009     0.006
 136       0.027    -0.015    -0.013     0.033    -0.018    -0.031
 137       0.007     0.009    -0.016     0.065    -0.052    -0.058
 138       0.022    -0.007    -0.015     0.005     0.003     0.001
 139       0.069    -0.021    -0.048     0.064     0.012     0.004
 140      -0.005     0.014    -0.010     0.025     0.019     0.024
 141       0.012     0.007    -0.019     0.020     0.007     0.008
 142       0.008     0.005    -0.013    -0.009     0.000     0.002
 143       0.002     0.001    -0.003    -0.004     0.004    -0.005
 144      -0.004     0.007    -0.004    -0.006    -0.003     0.006
 145       0.000     0.008    -0.009     0.004    -0.001    -0.006
 146      -0.006     0.004     0.002     0.000    -0.000     0.001
 147       0.002     0.004    -0.006    -0.001    -0.000    -0.000
 148       0.002    -0.003     0.002     0.001    -0.000    -0.001
 149      -0.002     0.005    -0.002     0.008    -0.001    -0.008
 150      -0.010     0.019    -0.010    -0.002    -0.003     0.002
 151      -0.009     0.008     0.000     0.006    -0.001    -0.004
 152      -0.004     0.010    -0.005    -0.004    -0.003     0.007
 153      -0.012     0.022    -0.010     0.003     0.012    -0.007
 154      -0.012     0.005     0.007    -0.003    -0.001    -0.009
 155      -0.014     0.019    -0.005     0.002    -0.001     0.000
 156      -0.017     0.005     0.012     0.019    -0.017    -0.021
 157      -0.033     0.018     0.015    -0.006    -0.003    -0.036
 158      -0.011     0.022    -0.011     0.008     0.004     0.008
 159      -0.015     0.011     0.004    -0.021     0.019    -0.030
 160      -0.002     0.004    -0.002    -0.000     0.004    -0.000
 161       0.004     0.011    -0.015    -0.030     0.019    -0.021
 162      -0.000     0.001    -0.000    -0.001     0.001    -0.001
 163      -0.005     0.009    -0.005    -0.002     0.004    -0.002
 164      -0.005    -0.000     0.005    -0.006     0.004    -0.005
 165       0.005    -0.000    -0.005    -0.005     0.004    -0.006
 166       0.014    -0.006    -0.008    -0.003     0.001    -0.008
 167       0.008    -0.012     0.004    -0.002     0.006    -0.006
 168       0.004    -0.007     0.004     0.006    -0.007    -0.006
 169       0.031    -0.019    -0.012     0.007    -0.036     0.018
 170      -0.001    -0.013     0.014     0.003    -0.007    -0.004
 171       0.014    -0.013    -0.001     0.004    -0.007    -0.003
 172       0.006    -0.012     0.006     0.002     0.002    -0.002
 173       0.016    -0.032     0.016    -0.009    -0.033     0.009
 174      -0.018     0.037    -0.018     0.027     0.004    -0.027
 175      -0.012    -0.019     0.031    -0.018    -0.036    -0.007
 176      -0.012     0.006     0.006    -0.084     0.074    -0.093
 177      -0.067     0.079    -0.012    -1.224     1.129    -1.242
 178      -0.019    -0.017     0.036    -0.006     0.005    -0.009
 179      -0.039     0.006     0.033     0.015    -0.016    -0.073
 180      -0.021    -0.022     0.043    -0.004    -0.005     0.003
 181       0.016    -0.050     0.034     0.015     0.055     0.012
 182      -0.013     0.026    -0.013    -0.237     0.219    -0.237
 183       0.009    -0.016     0.007    -0.083     0.086    -0.068
 184       0.004    -0.008     0.004    -0.019     0.021    -0.019
 185       0.007    -0.016     0.009    -0.068     0.086    -0.083
 186       0.005    -0.010     0.005    -0.002     0.004    -0.002
 187       0.005    -0.010     0.005    -0.012     0.025    -0.012
 188       0.007    -0.024     0.017     0.013     0.022     0.011
 189       0.017    -0.024     0.007     0.011     0.022     0.013
 190       0.021    -0.010    -0.011     0.004    -0.002     0.009
 191       0.003     0.000    -0.004    -0.004    -0.003     0.007
 192      -0.002     0.004    -0.002    -0.029    -0.030     0.029
 193       0.007     0.009    -0.016    -0.065    -0.052     0.058
 194      -0.005    -0.010     0.015    -0.005    -0.007     0.006
 195       0.015    -0.010    -0.005    -0.006    -0.007     0.005
 196       0.001    -0.001     0.001    -0.002    -0.001     0.002
 197      -0.005     0.009    -0.005    -0.010    -0.004     0.010
 198      -0.025     0.049    -0.025    -0.594    -0.577     0.594
 199      -0.016     0.009     0.007    -0.058    -0.052     0.065
 200      -0.013    -0.015     0.027    -0.031    -0.018     0.033
 201      -0.019     0.043    -0.024     0.006    -0.009     0.026
 202      -0.015    -0.007     0.022     0.001     0.003     0.005
 203      -0.048    -0.021     0.069     0.004     0.012     0.064
 204      -0.019     0.007     0.012     0.008     0.007     0.020
 205      -0.010     0.014    -0.005     0.024     0.019     0.025
 206      -0.006     0.011    -0.006     0.027     0.044     0.027
 207      -0.009    -0.001     0.011     0.008     0.010     0.012
 208       0.002    -0.005     0.002     0.003     0.008     0.003
 209       0.011    -0.001    -0.009     0.012     0.010     0.008
 210       0.004    -0.007     0.004     0.002     0.000     0.002
 211       0.005    -0.009     0.005     0.004     0.013     0.004
 212      -0.005     0.001     0.004     0.002     0.002     0.001
 213       0.004     0.001    -0.005     0.001     0.002     0.002
 214     -14.606    29.212   -14.606     0.000    30.696     0.000
 ---------------------------------------------------------------------


 Total hyperfine coupling parameters after diagonalization (MHz)
 (convention: |A_zz| > |A_xx| > |A_yy|)
 ----------------------------------------------------------------------
  ion      A_xx      A_yy      A_zz     asymmetry (A_yy - A_xx)/ A_zz 
 ----------------------------------------------------------------------
   1       0.012     0.008     0.015      -0.253
   2       0.009     0.004     0.020      -0.214
   3       0.004    -0.003     0.007      -1.083
   4       0.009     0.004     0.020      -0.214
   5      -0.007     0.001     0.012       0.653
   6      -0.006    -0.003    -0.007      -0.393
   7      -0.004     0.003     0.015       0.423
   8      -0.004     0.003     0.015       0.423
   9       0.056     0.046     0.075      -0.136
  10       0.100     0.095     0.173      -0.028
  11       0.115     0.112     0.133      -0.022
  12       0.164     0.154     0.185      -0.053
  13      -0.011    -0.002     0.023       0.425
  14       0.013     0.002     0.030      -0.367
  15      -0.129    -0.058    -0.146      -0.486
  16       0.161     0.145     0.216      -0.074
  17       0.056     0.046     0.075      -0.136
  18       0.008    -0.001     0.021      -0.435
  19      -0.004    -0.004     0.014       0.018
  20       0.009     0.004     0.020      -0.214
  21      -0.006    -0.004    -0.013      -0.176
  22      -0.006    -0.004    -0.013      -0.176
  23      -0.033    -0.016    -0.040      -0.431
  24       0.000    -0.000    -0.006       0.147
  25      -0.006     0.003     0.011       0.865
  26       0.089     0.075     0.103      -0.136
  27       0.024     0.019     0.082      -0.061
  28       0.089     0.075     0.103      -0.136
  29      -0.073    -0.020    -0.076      -0.697
  30       0.008    -0.005     0.016      -0.783
  31       0.045     0.027     0.095      -0.193
  32       0.045     0.027     0.095      -0.193
  33       0.021     0.005     0.036      -0.427
  34       0.403     0.386     0.633      -0.026
  35       0.498     0.486     0.744      -0.016
  36       0.027     0.026     0.072      -0.020
  37      -0.361    -0.222    -0.374      -0.373
  38      -0.026    -0.017     0.036       0.268
  39      -0.458    -0.344    -0.481      -0.237
  40      -0.057     0.005    -0.064      -0.962
  41       0.021     0.005     0.036      -0.427
  42       0.175     0.135     0.232      -0.175
  43      -0.005     0.002     0.019       0.360
  44       0.089     0.075     0.103      -0.136
  45      -0.025    -0.004    -0.036      -0.581
  46      -0.025    -0.004    -0.036      -0.581
  47      -0.278    -0.209    -0.295      -0.233
  48      -0.011    -0.007    -0.028      -0.150
  49       0.034     0.034     0.035      -0.013
  50       0.031     0.023     0.041      -0.197
  51      -0.013     0.004    -0.013      -1.280
  52       0.031     0.023     0.041      -0.197
  53      -0.065    -0.038    -0.067      -0.410
  54       0.005     0.004    -0.007       0.154
  55      -0.007    -0.002    -0.014      -0.366
  56      -0.007    -0.002    -0.014      -0.366
  57       0.039     0.021     0.063      -0.291
  58       0.062     0.055     0.093      -0.066
  59       0.177     0.142     0.248      -0.140
  60      -0.007    -0.002     0.016       0.305
  61       0.308     0.301     0.459      -0.015
  62      -0.038    -0.007    -0.046      -0.693
  63       0.211     0.206     0.280      -0.019
  64       0.067     0.056     0.109      -0.096
  65       0.039     0.021     0.063      -0.291
  66       0.358     0.351     0.531      -0.014
  67       0.187     0.182     0.272      -0.017
  68       0.031     0.023     0.041      -0.197
  69      -0.040    -0.014    -0.047      -0.542
  70      -0.040    -0.014    -0.047      -0.542
  71      -0.007    -0.004     0.023       0.114
  72      -0.005    -0.001    -0.008      -0.520
  73       0.056     0.046     0.075      -0.136
  74       0.164     0.154     0.185      -0.053
  75       0.115     0.112     0.133      -0.022
  76       0.100     0.095     0.173      -0.028
  77      -0.011    -0.002     0.023       0.425
  78       0.013     0.002     0.030      -0.367
  79       0.161     0.145     0.216      -0.074
  80      -0.129    -0.058    -0.146      -0.486
  81       0.029     0.024     0.065      -0.072
  82       0.023    -0.003     0.046      -0.552
  83       0.055     0.036     0.104      -0.183
  84       0.023    -0.003     0.046      -0.552
  85       0.001    -0.001     0.048      -0.051
  86       0.001    -0.001     0.048      -0.051
  87      -0.069    -0.004    -0.075      -0.856
  88      -0.069    -0.004    -0.075      -0.856
  89      -0.015    -0.009     0.018       0.300
  90       0.023    -0.003     0.046      -0.552
  91       0.115     0.112     0.133      -0.022
  92       0.008    -0.001     0.021      -0.435
  93       0.013     0.002     0.030      -0.367
  94      -0.011    -0.002     0.023       0.425
  95      -0.129    -0.058    -0.146      -0.486
  96       0.161     0.145     0.216      -0.074
  97       0.021     0.005     0.036      -0.427
  98       0.027     0.026     0.072      -0.020
  99       0.498     0.486     0.744      -0.016
 100       0.403     0.386     0.633      -0.026
 101      -0.361    -0.222    -0.374      -0.373
 102      -0.026    -0.017     0.036       0.268
 103      -0.057     0.005    -0.064      -0.962
 104      -0.458    -0.344    -0.481      -0.237
 105       1.282     1.281     1.976      -0.000
 106       4.246     4.181     7.814      -0.008
 107       0.130     0.037     0.284      -0.324
 108       4.246     4.181     7.814      -0.008
 109      -0.827    -0.497    -0.902      -0.366
 110      -0.828    -0.497    -0.902      -0.366
 111       0.416     0.391     0.486      -0.053
 112       4.246     4.181     7.814      -0.008
 113       0.498     0.486     0.744      -0.016
 114       0.175     0.135     0.232      -0.175
 115      -0.026    -0.017     0.036       0.268
 116      -0.361    -0.222    -0.374      -0.373
 117      -0.458    -0.344    -0.481      -0.237
 118      -0.057     0.005    -0.064      -0.962
 119       0.039     0.021     0.063      -0.291
 120      -0.007    -0.002     0.016       0.305
 121       0.177     0.142     0.248      -0.140
 122       0.062     0.055     0.093      -0.066
 123       0.308     0.301     0.459      -0.015
 124      -0.038    -0.007    -0.046      -0.693
 125       0.067     0.056     0.109      -0.096
 126       0.211     0.206     0.280      -0.019
 127       0.361     0.327     0.443      -0.075
 128      -0.056     0.009    -0.081      -0.801
 129      -0.056     0.009    -0.081      -0.801
 130       1.705     1.683     2.788      -0.008
 131       1.705     1.683     2.788      -0.008
 132       0.078     0.064     0.144      -0.100
 133       0.078     0.064     0.144      -0.100
 134       3.628     3.603     5.383      -0.005
 135      -0.056     0.009    -0.081      -0.801
 136       0.177     0.142     0.248      -0.140
 137       0.358     0.351     0.531      -0.014
 138      -0.038    -0.007    -0.046      -0.693
 139       0.308     0.301     0.459      -0.015
 140       0.211     0.206     0.280      -0.019
 141       0.067     0.056     0.109      -0.096
 142       0.056     0.046     0.075      -0.136
 143       0.009     0.004     0.020      -0.214
 144      -0.004    -0.004     0.014       0.018
 145       0.008    -0.001     0.021      -0.435
 146      -0.006    -0.004    -0.013      -0.176
 147      -0.006    -0.004    -0.013      -0.176
 148       0.000    -0.000    -0.006       0.146
 149      -0.033    -0.016    -0.040      -0.431
 150      -0.015    -0.009     0.018       0.299
 151       0.008    -0.001     0.021      -0.435
 152       0.115     0.112     0.133      -0.022
 153       0.023    -0.003     0.046      -0.552
 154       0.013     0.002     0.030      -0.367
 155      -0.011    -0.002     0.023       0.425
 156       0.161     0.145     0.216      -0.074
 157      -0.129    -0.058    -0.146      -0.486
 158       0.029     0.024     0.065      -0.072
 159       0.100     0.095     0.173      -0.028
 160       0.004    -0.003     0.007      -1.083
 161       0.100     0.095     0.173      -0.028
 162      -0.006    -0.003    -0.007      -0.393
 163      -0.007     0.001     0.012       0.653
 164      -0.004     0.003     0.015       0.423
 165      -0.004     0.003     0.015       0.423
 166       0.021     0.005     0.036      -0.427
 167       0.089     0.075     0.103      -0.136
 168      -0.005     0.002     0.019       0.359
 169       0.175     0.135     0.232      -0.175
 170      -0.025    -0.004    -0.036      -0.581
 171      -0.025    -0.004    -0.036      -0.581
 172      -0.011    -0.007    -0.028      -0.150
 173      -0.278    -0.209    -0.295      -0.233
 174       0.416     0.391     0.486      -0.053
 175       0.175     0.135     0.232      -0.175
 176       0.498     0.486     0.744      -0.016
 177       4.246     4.181     7.814      -0.008
 178      -0.026    -0.017     0.036       0.268
 179      -0.361    -0.221    -0.374      -0.373
 180      -0.057     0.005    -0.064      -0.962
 181      -0.458    -0.344    -0.481      -0.237
 182       1.282     1.281     1.976      -0.000
 183       0.403     0.386     0.633      -0.026
 184       0.024     0.019     0.082      -0.061
 185       0.403     0.386     0.633      -0.026
 186       0.008    -0.005     0.016      -0.783
 187      -0.073    -0.020    -0.076      -0.697
 188       0.045     0.027     0.095      -0.193
 189       0.045     0.027     0.095      -0.193
 190       0.039     0.021     0.063      -0.291
 191       0.031     0.023     0.041      -0.197
 192       0.187     0.182     0.272      -0.017
 193       0.358     0.351     0.531      -0.014
 194      -0.040    -0.014    -0.047      -0.542
 195      -0.040    -0.014    -0.047      -0.542
 196      -0.005    -0.001    -0.008      -0.520
 197      -0.007    -0.004     0.023       0.114
 198       3.628     3.603     5.383      -0.005
 199       0.358     0.351     0.531      -0.014
 200       0.177     0.142     0.248      -0.140
 201      -0.056     0.009    -0.081      -0.801
 202      -0.038    -0.007    -0.046      -0.693
 203       0.308     0.301     0.459      -0.015
 204       0.067     0.056     0.109      -0.096
 205       0.211     0.206     0.280      -0.019
 206       0.361     0.327     0.443      -0.075
 207       0.062     0.055     0.093      -0.066
 208      -0.013     0.004    -0.014      -1.279
 209       0.062     0.055     0.093      -0.066
 210       0.005     0.004    -0.007       0.154
 211      -0.065    -0.038    -0.067      -0.410
 212      -0.007    -0.002    -0.014      -0.366
 213      -0.007    -0.002    -0.014      -0.366
 214      62.840     1.448    75.962      -0.808
 ---------------------------------------------------------------------



--------------------------------------------------------------------------------------------------------


 writing wavefunctions
     LOOP+:  cpu time 9204.0764: real time 9227.2324
    4ORBIT:  cpu time    0.0000: real time    0.0000

 total amount of memory used by VASP MPI-rank0   257611. kBytes
=======================================================================

   base      :      30000. kBytes
   nonl-proj :      12481. kBytes
   fftplans  :      13797. kBytes
   grid      :      32673. kBytes
   one-center:       1327. kBytes
   HF        :         73. kBytes
   nonlr-proj:       1963. kBytes
   wavefun   :      68241. kBytes
   fock_wrk  :      97056. kBytes
 
  
  
 General timing and accounting informations for this job:
 ========================================================
  
                  Total CPU time used (sec):     9257.324
                            User time (sec):     9225.332
                          System time (sec):       31.992
                         Elapsed time (sec):     9281.825
  
                   Maximum memory used (kb):     2100340.
                   Average memory used (kb):          N/A
  
                          Minor page faults:      4533850
                          Major page faults:            2
                 Voluntary context switches:        11665
