 vasp.6.2.1 16May21 (build Sep 27 2021 21:11:04) gamma-only                     
  
 executed on             LinuxIFC date 2023.05.10  12:03:17
 running   24 mpi-ranks, with    1 threads/rank
 distrk:  each k-point on   24 cores,    1 groups
 distr:  one band on NCORE=   8 cores,    3 groups


--------------------------------------------------------------------------------------------------------


 INCAR:
   GGA = PE
   ISTART = 1
   ISPIN = 2
   ENCUT = 700
   ENAUG = 1400
   EDIFF = 1E-6
   IBRION = 2
   POTIM = 0.2
   ALGO = All
   NSW = 0
   EDIFFG = -1E-2
   ISMEAR = 0
   SIGMA = 0.01
   ISIF = 1
   LREAL = .FALSE.
   ISYM = 0
   NELECT = 868
   PREC = Accurate
   LHFCALC = .TRUE.
   HFSCREEN = 0.2
   LHYPERFINE = .TRUE.
   LEFG = .TRUE.
   NCORE = 8
   NELM = 60
   NWRITE = 2
   SYMPREC = 1.0e-8

 POTCAR:    PAW_PBE C 08Apr2002                   
 POTCAR:    PAW_PBE Pr 23Dec2003                  
 -----------------------------------------------------------------------------
|                                                                             |
|           W    W    AA    RRRRR   N    N  II  N    N   GGGG   !!!           |
|           W    W   A  A   R    R  NN   N  II  NN   N  G    G  !!!           |
|           W    W  A    A  R    R  N N  N  II  N N  N  G       !!!           |
|           W WW W  AAAAAA  RRRRR   N  N N  II  N  N N  G  GGG   !            |
|           WW  WW  A    A  R   R   N   NN  II  N   NN  G    G                |
|           W    W  A    A  R    R  N    N  II  N    N   GGGG   !!!           |
|                                                                             |
|     You use a magnetic or noncollinear calculation, but did not specify     |
|     the initial magnetic moment with the MAGMOM tag. Note that a            |
|     default of 1 will be used for all atoms. This ferromagnetic setup       |
|     may break the symmetry of the crystal, in particular it may rule        |
|     out finding an antiferromagnetic solution. Thence, we recommend         |
|     setting the initial magnetic moment manually or verifying carefully     |
|     that this magnetic setup is desired.                                    |
|                                                                             |
 -----------------------------------------------------------------------------

 POTCAR:    PAW_PBE C 08Apr2002                   
   SHA256 =  253f7b50bb8d59471dbedb8285d89021f4a42ed1a2c5d38a03a736e69125dd95 C/POTCAR              
   COPYR  = (c) Copyright 08Apr2002 Georg Kresse                                                    
   COPYR  = This file is part of the software VASP. Any use, copying, and all other rights are regul
   COPYR  = If you do not have a valid VASP license, you may not use, copy or distribute this file. 
   VRHFIN =C: s2p2                                                                                  
   LEXCH  = PE                                                                                      
   EATOM  =   147.1560 eV,   10.8157 Ry                                                             
                                                                                                    
   TITEL  = PAW_PBE C 08Apr2002                                                                     
   LULTRA =        F    use ultrasoft PP ?                                                          
   IUNSCR =        1    unscreen: 0-lin 1-nonlin 2-no                                               
   RPACOR =    1.200    partial core radius                                                         
   POMASS =   12.011; ZVAL   =    4.000    mass and valenz                                          
   RCORE  =    1.500    outmost cutoff radius                                                       
   RWIGS  =    1.630; RWIGS  =    0.863    wigner-seitz radius (au A)                               
   ENMAX  =  400.000; ENMIN  =  300.000 eV                                                          
   ICORE  =        2    local potential                                                             
   LCOR   =        T    correct aug charges                                                         
   LPAW   =        T    paw PP                                                                      
   EAUG   =  644.873                                                                                
   DEXC   =    0.000                                                                                
   RMAX   =    1.529    core radius for proj-oper                                                   
   RAUG   =    1.300    factor for augmentation sphere                                              
   RDEP   =    1.501    radius for radial grids                                                     
   RDEPT  =    1.300    core radius for aug-charge                                                  
                                                                                                    
   Atomic configuration                                                                             
    4 entries                                                                                       
     n  l   j            E        occ.                                                              
     1  0  0.50      -273.3789   2.0000                                                             
     2  0  0.50       -13.7508   2.0000                                                             
     2  1  0.50        -5.2854   2.0000                                                             
     3  2  1.50        -5.4423   0.0000                                                             
   Description                                                                                      
     l       E           TYP  RCUT    TYP  RCUT                                                     
     0    -13.7508458     23  1.200                                                                 
     0     -8.2022199     23  1.200                                                                 
     1     -5.2854383     23  1.500                                                                 
     1     34.0145650     23  1.500                                                                 
     2     -5.4423304      7  1.500                                                                 
  local pseudopotential read in
  partial core-charges read in
  partial kinetic energy density read in
  atomic valenz-charges read in
  non local Contribution for L=           0  read in
    real space projection operators read in
  non local Contribution for L=           0  read in
    real space projection operators read in
  non local Contribution for L=           1  read in
    real space projection operators read in
  non local Contribution for L=           1  read in
    real space projection operators read in
    PAW grid and wavefunctions read in
 
   number of l-projection  operators is LMAX  =           4
   number of lm-projection operators is LMMAX =           8
 
 POTCAR:    PAW_PBE Pr 23Dec2003                  
   SHA256 =  ebcd8a6c43bbf830c2eab3f7188f0d0e53e8e155a05b1bfc11640602897f077e Pr/POTCAR             
   COPYR  = (c) Copyright 23Dec2003 Georg Kresse                                                    
   COPYR  = This file is part of the software VASP. Any use, copying, and all other rights are regul
   COPYR  = If you do not have a valid VASP license, you may not use, copy or distribute this file. 
   VRHFIN =Pr : [core=Xe4]                                                                          
   LEXCH  = PE                                                                                      
   EATOM  =  1294.6665 eV,   95.1553 Ry                                                             
                                                                                                    
   TITEL  = PAW_PBE Pr 23Dec2003                                                                    
   LULTRA =        F    use ultrasoft PP ?                                                          
   IUNSCR =        1    unscreen: 0-lin 1-nonlin 2-no                                               
   RPACOR =    2.300    partial core radius                                                         
   POMASS =  140.907; ZVAL   =   13.000    mass and valenz                                          
   RCORE  =    2.700    outmost cutoff radius                                                       
   RWIGS  =    2.800; RWIGS  =    1.482    wigner-seitz radius (au A)                               
   ENMAX  =  272.941; ENMIN  =  204.706 eV                                                          
   RCLOC  =    1.903    cutoff for local pot                                                        
   LCOR   =        T    correct aug charges                                                         
   LPAW   =        T    paw PP                                                                      
   EAUG   =  578.020                                                                                
   DEXC   =    0.000                                                                                
   RMAX   =    2.755    core radius for proj-oper                                                   
   RAUG   =    1.300    factor for augmentation sphere                                              
   RDEP   =    2.816    radius for radial grids                                                     
   RDEPT  =    2.166    core radius for aug-charge                                                  
                                                                                                    
   Atomic configuration                                                                             
   14 entries                                                                                       
     n  l   j            E        occ.                                                              
     1  0  0.50    -41810.3934   2.0000                                                             
     2  0  0.50     -6731.1418   2.0000                                                             
     2  1  1.50     -6022.4876   6.0000                                                             
     3  0  0.50     -1458.2043   2.0000                                                             
     3  1  1.50     -1233.8862   6.0000                                                             
     3  2  2.50      -919.2566  10.0000                                                             
     4  0  0.50      -295.2681   2.0000                                                             
     4  1  1.50      -221.8430   6.0000                                                             
     4  2  2.50      -116.8418  10.0000                                                             
     5  0  0.50       -42.1589   2.0000                                                             
     6  0  0.50        -3.8068   2.0000                                                             
     5  1  1.50       -23.9655   6.0000                                                             
     5  2  2.50        -3.0008   1.0000                                                             
     4  3  2.50        -6.2311   2.0000                                                             
   Description                                                                                      
     l       E           TYP  RCUT    TYP  RCUT                                                     
     0    -42.1589404     23  1.550                                                                 
     0     -3.8068341     23  2.300                                                                 
     1    -23.9655292     23  2.400                                                                 
     1     27.2116520     23  2.400                                                                 
     2     -3.0008130     23  2.500                                                                 
     2     13.6058260     23  2.500                                                                 
     3     -6.2311419     23  2.700                                                                 
     3     -6.8029130     23  2.700                                                                 
  local pseudopotential read in
  partial core-charges read in
  partial kinetic energy density read in
  atomic valenz-charges read in
  non local Contribution for L=           0  read in
    real space projection operators read in
  non local Contribution for L=           0  read in
    real space projection operators read in
  non local Contribution for L=           1  read in
    real space projection operators read in
  non local Contribution for L=           1  read in
    real space projection operators read in
  non local Contribution for L=           2  read in
    real space projection operators read in
  non local Contribution for L=           2  read in
    real space projection operators read in
  non local Contribution for L=           3  read in
    real space projection operators read in
  non local Contribution for L=           3  read in
    real space projection operators read in
    PAW grid and wavefunctions read in
 
   number of l-projection  operators is LMAX  =           8
   number of lm-projection operators is LMMAX =          32
 
 -----------------------------------------------------------------------------
|                                                                             |
|               ----> ADVICE to this user running VASP <----                  |
|                                                                             |
|     You have a (more or less) 'large supercell' and for larger cells it     |
|     might be more efficient to use real-space projection operators.         |
|     Therefore, try LREAL= Auto in the INCAR file.                           |
|     Mind: For very accurate calculation, you might also keep the            |
|     reciprocal projection scheme (i.e. LREAL=.FALSE.).                      |
|                                                                             |
 -----------------------------------------------------------------------------

  PAW_PBE C 08Apr2002                   :
 energy of atom  1       EATOM= -147.1560
 kinetic energy error for atom=    0.0032 (will be added to EATOM!!)
  PAW_PBE Pr 23Dec2003                  :
 energy of atom  2       EATOM=-1294.6665
 kinetic energy error for atom=    0.0051 (will be added to EATOM!!)
 
 
 POSCAR: prv2
  positions in direct lattice
  velocities in cartesian coordinates
 exchange correlation table for  LEXCH =        8
   RHO(1)=    0.500       N(1)  =     2000
   RHO(2)=  100.500       N(2)  =     4000
 


--------------------------------------------------------------------------------------------------------


 ion  position               nearest neighbor table
   1  0.000  0.000  1.000- 162 1.53   6 1.53 196 1.54  72 1.54
   2  1.000  0.167  0.167-   7 1.53  24 1.53  21 1.54   6 1.54
   3  0.166  0.000  0.166-   5 1.53   6 1.53  55 1.54  56 1.54
   4  0.167  0.167  1.000-   8 1.53 148 1.53 146 1.54   6 1.54
   5  0.249  0.084  0.249-  81 1.53   3 1.53  76 1.54  10 1.54
   6  0.083  0.084  0.083-   1 1.53   3 1.53   4 1.54   2 1.54
   7  0.083  0.250  0.250-   2 1.53  76 1.53  97 1.54  27 1.54
   8  0.250  0.250  0.083-   4 1.53  10 1.53  33 1.54  27 1.54
   9  0.333  0.000  1.000- 204 1.53  14 1.53 146 1.53  56 1.53
  10  0.333  0.166  0.166-  15 1.52  14 1.53   8 1.53   5 1.54
  11  0.500  0.001  0.165-  63 1.52  14 1.53  64 1.54  13 1.54
  12  0.500  0.167  1.000-  14 1.53 154 1.53  16 1.53 156 1.53
  13  0.583  0.084  0.250-  18 1.53  84 1.53  89 1.54  11 1.54
  14  0.417  0.084  0.082-  11 1.53  12 1.53  10 1.53   9 1.53
  15  0.416  0.249  0.248-  10 1.52 105 1.53  84 1.54  35 1.54
  16  0.583  0.250  0.083-  35 1.52  12 1.53  41 1.53  18 1.54
  17  0.667  0.000  0.000-  64 1.53 154 1.53  22 1.53 212 1.53
  18  0.667  0.167  0.167-  13 1.53  22 1.53  16 1.54  23 1.54
  19  0.833  0.000  0.167-  22 1.53  21 1.53  72 1.54  71 1.54
  20  0.833  0.167  0.000- 164 1.53  24 1.53  22 1.54 162 1.54
  21  0.916  0.084  0.250-  19 1.53  73 1.53  92 1.53   2 1.54
  22  0.750  0.084  0.084-  19 1.53  17 1.53  18 1.53  20 1.54
  23  0.750  0.250  0.250-  43 1.53 111 1.54  92 1.54  18 1.54
  24  0.916  0.250  0.084-   2 1.53  20 1.53  25 1.54  43 1.54
  25  0.000  0.334  1.000-  30 1.53 186 1.53  24 1.54 148 1.54
  26  0.999  0.500  0.166-  31 1.53  48 1.53  45 1.54  30 1.54
  27  0.166  0.333  0.166-  29 1.53  30 1.53   7 1.54   8 1.54
  28  0.166  0.500  0.999-  32 1.53 172 1.53 170 1.54  30 1.54
  29  0.249  0.417  0.249-  27 1.53 100 1.54  34 1.54 105 1.54
  30  0.083  0.417  0.083-  25 1.53  27 1.53  28 1.54  26 1.54
  31  0.082  0.584  0.249- 100 1.53  26 1.53 119 1.54  51 1.54
  32  0.249  0.584  0.082-  34 1.53  28 1.53  57 1.54  51 1.54
  33  0.333  0.334  0.999-  38 1.53 156 1.53   8 1.54 170 1.54
  34  0.332  0.501  0.165-  32 1.53  39 1.53  29 1.54  38 1.54
  35  0.500  0.332  0.165-  16 1.52  37 1.54  15 1.54  38 1.54
  36  0.500  0.500  1.000- 178 1.53  38 1.53 180 1.54  40 1.54
  37  0.582  0.416  0.249- 108 1.48  42 1.54  35 1.54 111 1.54
  38  0.416  0.417  0.083-  33 1.53  36 1.53  34 1.54  35 1.54
  39  0.416  0.583  0.248- 108 1.51  34 1.53  59 1.54 127 1.56
  40  0.583  0.584  0.084-  59 1.53  42 1.53  65 1.54  36 1.54
  41  0.667  0.334  0.001- 178 1.53  16 1.53 164 1.54  46 1.54
  42  0.666  0.500  0.168-  40 1.53  37 1.54  46 1.54  47 1.54
  43  0.833  0.334  0.167-  45 1.53  46 1.53  23 1.53  24 1.54
  44  0.834  0.500  0.001- 188 1.53  48 1.53  46 1.54 186 1.54
  45  0.916  0.417  0.250-  43 1.53  97 1.54  26 1.54 114 1.54
  46  0.750  0.417  0.084-  43 1.53  41 1.54  44 1.54  42 1.54
  47  0.748  0.585  0.252- 134 1.51  42 1.54 114 1.54  67 1.55
  48  0.916  0.584  0.084-  44 1.53  26 1.53  67 1.54  49 1.54
  49  0.000  0.667  1.000-  54 1.53 210 1.53  48 1.54 172 1.54
  50  1.000  0.834  0.167-  72 1.53  55 1.53  54 1.54  69 1.54
  51  0.165  0.667  0.165-  54 1.53  53 1.53  31 1.54  32 1.54
  52  0.167  0.834  1.000- 196 1.53  56 1.53  54 1.54 194 1.54
  53  0.248  0.750  0.248- 127 1.52  51 1.53 122 1.54  58 1.54
  54  0.083  0.750  0.083-  51 1.53  49 1.53  52 1.54  50 1.54
  55  0.083  0.917  0.250- 122 1.53  50 1.53  73 1.53   3 1.54
  56  0.250  0.917  0.083-  58 1.53  52 1.53   9 1.53   3 1.54
  57  0.333  0.667  0.999- 194 1.53 180 1.54  32 1.54  62 1.54
  58  0.333  0.834  0.166-  56 1.53  62 1.54  53 1.54  63 1.54
  59  0.500  0.667  0.167-  40 1.53  62 1.54  39 1.54  61 1.54
  60  0.500  0.834  1.000- 204 1.54  64 1.54 202 1.54  62 1.54
  61  0.583  0.750  0.251- 134 1.51  59 1.54  66 1.54 129 1.54
  62  0.417  0.750  0.083-  58 1.54  60 1.54  59 1.54  57 1.54
  63  0.417  0.919  0.248-  11 1.52 129 1.53  81 1.54  58 1.54
  64  0.583  0.917  0.083-  17 1.53  66 1.53  60 1.54  11 1.54
  65  0.667  0.667  0.001-  70 1.53  40 1.54 188 1.54 202 1.54
  66  0.666  0.834  0.167-  64 1.53  70 1.54  71 1.54  61 1.54
  67  0.833  0.667  0.167-  70 1.54  69 1.54  48 1.54  47 1.55
  68  0.833  0.834  0.000-  72 1.53 212 1.53 210 1.54  70 1.54
  69  0.916  0.750  0.250- 119 1.53  67 1.54 137 1.54  50 1.54
  70  0.750  0.750  0.084-  65 1.53  67 1.54  66 1.54  68 1.54
  71  0.750  0.917  0.250-  89 1.53  19 1.54 137 1.54  66 1.54
  72  0.916  0.917  0.084-  50 1.53  68 1.53  19 1.54   1 1.54
  73  1.000  0.000  0.333- 141 1.53  78 1.53  21 1.53  55 1.53
  74  0.000  0.167  0.500-  93 1.53  78 1.53  96 1.53  79 1.53
  75  0.165  0.001  0.500- 126 1.52  78 1.53 125 1.54  77 1.54
  76  0.166  0.166  0.333-  80 1.52  78 1.53   7 1.53   5 1.54
  77  0.250  0.084  0.583- 145 1.53  82 1.53 150 1.54  75 1.54
  78  0.082  0.084  0.417-  75 1.53  74 1.53  76 1.53  73 1.53
  79  0.083  0.250  0.583-  99 1.52  74 1.53 166 1.53 145 1.54
  80  0.248  0.249  0.416-  76 1.52 105 1.53  82 1.54  99 1.54
  81  0.333  0.001  0.333-   5 1.53  86 1.54  63 1.54 126 1.54
  82  0.333  0.167  0.500-  77 1.53  86 1.53  80 1.54  87 1.54
  83  0.500  0.001  0.500- 133 1.53 132 1.53  85 1.54  86 1.54
  84  0.500  0.167  0.333-  13 1.53  86 1.53  15 1.54  88 1.54
  85  0.584  0.084  0.584- 153 1.53  90 1.53 158 1.54  83 1.54
  86  0.416  0.084  0.416-  82 1.53  84 1.53  81 1.54  83 1.54
  87  0.417  0.250  0.583- 107 1.53 174 1.53  82 1.54 153 1.54
  88  0.583  0.250  0.417- 107 1.53 111 1.53  84 1.54  90 1.54
  89  0.667  0.001  0.333- 133 1.53  71 1.53  13 1.54  94 1.54
  90  0.667  0.167  0.500-  94 1.53  85 1.53  95 1.54  88 1.54
  91  0.835  0.001  0.500- 140 1.52  93 1.53 141 1.54  94 1.54
  92  0.833  0.167  0.333-  94 1.53  21 1.53  96 1.54  23 1.54
  93  0.918  0.084  0.583-  91 1.53  74 1.53 161 1.53 142 1.53
  94  0.750  0.084  0.417-  92 1.53  90 1.53  89 1.54  91 1.54
  95  0.752  0.249  0.584- 161 1.52 182 1.53  90 1.54 113 1.54
  96  0.917  0.250  0.417- 113 1.52  74 1.53  97 1.53  92 1.54
  97  0.999  0.334  0.333- 102 1.53  96 1.53   7 1.54  45 1.54
  98  0.000  0.500  0.500- 102 1.53 115 1.53 103 1.54 118 1.54
  99  0.165  0.332  0.500-  79 1.52 101 1.54  80 1.54 102 1.54
 100  0.165  0.501  0.332-  31 1.53 104 1.53  29 1.54 102 1.54
 101  0.249  0.416  0.582- 106 1.48 169 1.54  99 1.54 174 1.54
 102  0.083  0.417  0.416-  97 1.53  98 1.53 100 1.54  99 1.54
 103  0.084  0.584  0.583- 121 1.53 169 1.53 190 1.54  98 1.54
 104  0.248  0.583  0.416- 106 1.51 100 1.53 121 1.54 127 1.56
 105  0.331  0.330  0.331- 110 1.51  80 1.53  15 1.53  29 1.54
 106  0.325  0.491  0.493- 101 1.48 104 1.51 110 1.52 214 2.23
 107  0.500  0.332  0.500-  88 1.53  87 1.53 109 1.56 110 1.56
 108  0.493  0.491  0.325-  37 1.48  39 1.51 110 1.52 214 2.23
 109  0.588  0.412  0.588- 182 1.51 177 1.52 112 1.52 107 1.56 214 2.45
 110  0.412  0.412  0.412- 105 1.51 106 1.52 108 1.52 107 1.56 214 2.45
 111  0.666  0.334  0.334-  88 1.53  23 1.54 116 1.54  37 1.54
 112  0.675  0.491  0.507- 116 1.48 117 1.51 109 1.52 214 2.23
 113  0.835  0.332  0.500-  96 1.52 116 1.54  95 1.54 115 1.54
 114  0.832  0.500  0.334- 118 1.53 116 1.54  45 1.54  47 1.54
 115  0.917  0.417  0.584- 166 1.53  98 1.53 185 1.54 113 1.54
 116  0.751  0.416  0.418- 112 1.48 114 1.54 113 1.54 111 1.54
 117  0.752  0.583  0.584- 112 1.51 185 1.53 136 1.54 206 1.56
 118  0.916  0.584  0.417- 136 1.53 114 1.53 119 1.54  98 1.54
 119  0.999  0.667  0.333-  69 1.53 118 1.54  31 1.54 124 1.54
 120  0.000  0.834  0.500- 125 1.54 141 1.54 138 1.54 124 1.54
 121  0.167  0.667  0.500- 103 1.53 104 1.54 124 1.54 123 1.54
 122  0.166  0.834  0.333-  55 1.53 124 1.54  53 1.54 126 1.54
 123  0.251  0.750  0.583- 198 1.51 121 1.54 193 1.54 128 1.54
 124  0.083  0.750  0.417- 122 1.54 120 1.54 121 1.54 119 1.54
 125  0.083  0.917  0.583- 142 1.53 193 1.53 120 1.54  75 1.54
 126  0.248  0.919  0.417-  75 1.52 128 1.53  81 1.54 122 1.54
 127  0.331  0.669  0.331- 131 1.52  53 1.52  39 1.56 104 1.56 214 2.63
 128  0.332  0.836  0.499- 131 1.48 126 1.53 132 1.54 123 1.54
 129  0.499  0.836  0.332- 131 1.48  63 1.53 133 1.54  61 1.54
 130  0.593  0.763  0.593- 201 1.48 135 1.48 206 1.52 214 2.18
 131  0.407  0.763  0.407- 128 1.48 129 1.48 127 1.52 214 2.18
 132  0.417  0.918  0.583-  83 1.53 150 1.53 128 1.54 201 1.54
 133  0.583  0.918  0.417-  83 1.53  89 1.53 129 1.54 135 1.54
 134  0.667  0.670  0.333- 139 1.51  61 1.51  47 1.51 214 2.60
 135  0.668  0.836  0.501- 130 1.48 140 1.53 133 1.54 139 1.54
 136  0.833  0.667  0.500- 118 1.53 138 1.54 117 1.54 139 1.54
 137  0.833  0.834  0.334- 141 1.53  69 1.54  71 1.54 139 1.54
 138  0.917  0.750  0.583- 209 1.54 120 1.54 136 1.54 190 1.54
 139  0.749  0.750  0.417- 134 1.51 136 1.54 137 1.54 135 1.54
 140  0.752  0.919  0.583-  91 1.52 135 1.53 158 1.54 209 1.54
 141  0.917  0.917  0.417-  73 1.53 137 1.53 120 1.54  91 1.54
 142  0.000  0.000  0.667- 125 1.53  93 1.53 147 1.53 213 1.53
 143  0.000  0.167  0.833- 165 1.53 148 1.53 147 1.54 162 1.54
 144  0.167  0.000  0.833- 147 1.53 146 1.53 196 1.54 197 1.54
 145  0.167  0.167  0.667-  77 1.53 147 1.53  79 1.54 149 1.54
 146  0.250  0.084  0.916- 144 1.53   9 1.53 151 1.53   4 1.54
 147  0.084  0.084  0.750- 144 1.53 142 1.53 145 1.53 143 1.54
 148  0.084  0.250  0.916-   4 1.53 143 1.53  25 1.54 168 1.54
 149  0.250  0.250  0.750- 168 1.53 174 1.54 151 1.54 145 1.54
 150  0.333  0.001  0.667- 132 1.53 197 1.53  77 1.54 155 1.54
 151  0.333  0.167  0.833- 155 1.53 146 1.53 156 1.54 149 1.54
 152  0.500  0.001  0.835- 205 1.52 154 1.53 204 1.54 155 1.54
 153  0.500  0.167  0.667- 155 1.53  85 1.53 157 1.54  87 1.54
 154  0.583  0.084  0.918- 152 1.53  12 1.53 159 1.53  17 1.53
 155  0.417  0.084  0.750- 151 1.53 153 1.53 150 1.54 152 1.54
 156  0.417  0.250  0.917- 176 1.52  12 1.53  33 1.53 151 1.54
 157  0.584  0.249  0.752- 159 1.52 182 1.53 153 1.54 176 1.54
 158  0.667  0.001  0.667- 163 1.53  85 1.54 140 1.54 205 1.54
 159  0.667  0.166  0.834- 157 1.52 154 1.53 164 1.53 163 1.54
 160  0.834  0.000  0.834- 163 1.53 162 1.53 212 1.54 213 1.54
 161  0.834  0.166  0.667-  95 1.52  93 1.53 165 1.53 163 1.54
 162  0.917  0.084  0.917-   1 1.53 160 1.53 143 1.54  20 1.54
 163  0.751  0.084  0.751- 158 1.53 160 1.53 159 1.54 161 1.54
 164  0.750  0.250  0.917-  20 1.53 159 1.53  41 1.54 184 1.54
 165  0.917  0.250  0.750- 143 1.53 161 1.53 166 1.54 184 1.54
 166  0.001  0.334  0.667- 115 1.53  79 1.53 165 1.54 171 1.54
 167  0.001  0.500  0.834- 189 1.53 172 1.53 171 1.54 186 1.54
 168  0.167  0.334  0.833- 170 1.53 171 1.53 149 1.53 148 1.54
 169  0.168  0.500  0.666- 103 1.53 101 1.54 171 1.54 173 1.54
 170  0.250  0.417  0.916- 168 1.53  33 1.54  28 1.54 175 1.54
 171  0.084  0.417  0.750- 168 1.53 166 1.54 167 1.54 169 1.54
 172  0.084  0.584  0.916- 167 1.53  28 1.53 192 1.54  49 1.54
 173  0.252  0.585  0.748- 198 1.51 169 1.54 175 1.54 192 1.55
 174  0.334  0.334  0.666-  87 1.53 149 1.54 179 1.54 101 1.54
 175  0.334  0.500  0.832- 180 1.53 179 1.54 170 1.54 173 1.54
 176  0.500  0.332  0.835- 156 1.52 179 1.54 157 1.54 178 1.54
 177  0.507  0.491  0.675- 179 1.48 181 1.51 109 1.52 214 2.23
 178  0.584  0.417  0.917-  41 1.53  36 1.53 183 1.54 176 1.54
 179  0.418  0.416  0.751- 177 1.48 175 1.54 176 1.54 174 1.54
 180  0.417  0.584  0.916- 200 1.53 175 1.53  57 1.54  36 1.54
 181  0.584  0.583  0.752- 177 1.51 183 1.53 200 1.54 206 1.56
 182  0.669  0.330  0.669- 109 1.51 157 1.53  95 1.53 187 1.54
 183  0.668  0.501  0.835- 188 1.53 181 1.53 187 1.54 178 1.54
 184  0.834  0.333  0.834- 187 1.53 186 1.53 164 1.54 165 1.54
 185  0.835  0.501  0.668- 189 1.53 117 1.53 187 1.54 115 1.54
 186  0.917  0.417  0.917-  25 1.53 184 1.53 167 1.54  44 1.54
 187  0.751  0.417  0.751- 184 1.53 183 1.54 185 1.54 182 1.54
 188  0.751  0.584  0.918- 183 1.53  44 1.53  65 1.54 208 1.54
 189  0.918  0.584  0.751- 185 1.53 167 1.53 190 1.54 208 1.54
 190  0.001  0.667  0.667- 195 1.53 103 1.54 189 1.54 138 1.54
 191  0.000  0.834  0.833- 196 1.53 213 1.53 210 1.54 195 1.54
 192  0.167  0.667  0.833- 195 1.54 194 1.54 172 1.54 173 1.55
 193  0.167  0.834  0.666- 125 1.53 195 1.54 197 1.54 123 1.54
 194  0.250  0.750  0.916-  57 1.53 192 1.54 199 1.54  52 1.54
 195  0.084  0.750  0.750- 190 1.53 192 1.54 193 1.54 191 1.54
 196  0.084  0.917  0.916-  52 1.53 191 1.53 144 1.54   1 1.54
 197  0.250  0.917  0.750- 150 1.53 144 1.54 199 1.54 193 1.54
 198  0.333  0.670  0.667- 203 1.51 123 1.51 173 1.51 214 2.60
 199  0.334  0.834  0.833- 204 1.53 194 1.54 197 1.54 203 1.54
 200  0.500  0.667  0.833- 180 1.53 202 1.54 181 1.54 203 1.54
 201  0.501  0.836  0.668- 130 1.48 205 1.53 132 1.54 203 1.54
 202  0.583  0.750  0.917- 207 1.54  60 1.54 200 1.54  65 1.54
 203  0.417  0.750  0.749- 198 1.51 200 1.54 199 1.54 201 1.54
 204  0.417  0.917  0.917-   9 1.53 199 1.53  60 1.54 152 1.54
 205  0.583  0.919  0.752- 152 1.52 201 1.53 158 1.54 207 1.54
 206  0.669  0.669  0.669- 130 1.52 211 1.52 117 1.56 181 1.56 214 2.63
 207  0.667  0.834  0.834- 212 1.53 202 1.54 211 1.54 205 1.54
 208  0.835  0.667  0.835- 210 1.53 211 1.53 188 1.54 189 1.54
 209  0.834  0.834  0.667- 213 1.53 138 1.54 211 1.54 140 1.54
 210  0.917  0.750  0.917- 208 1.53  49 1.53 191 1.54  68 1.54
 211  0.752  0.750  0.752- 206 1.52 208 1.53 207 1.54 209 1.54
 212  0.750  0.917  0.917- 207 1.53  68 1.53  17 1.53 160 1.54
 213  0.917  0.917  0.750- 209 1.53 191 1.53 142 1.53 160 1.54
 214  0.500  0.605  0.500- 130 2.18 131 2.18 177 2.23 112 2.23 106 2.23 108 2.23 109 2.45 110 2.45
                           198 2.60 134 2.60 206 2.63 127 2.63
 

IMPORTANT INFORMATION: All symmetrisations will be switched off!
NOSYMM: (Re-)initialisation of all symmetry stuff for point group C_1.


----------------------------------------------------------------------------------------

                                     Primitive cell                                     

  volume of cell :    1202.8529

  direct lattice vectors                    reciprocal lattice vectors
    10.635000229  0.000000000  0.000000000     0.094029147  0.000000000  0.000000000
     0.000000000 10.635000229  0.000000000     0.000000000  0.094029147  0.000000000
     0.000000000  0.000000000 10.635000229     0.000000000  0.000000000  0.094029147

  length of vectors
    10.635000229 10.635000229 10.635000229     0.094029147  0.094029147  0.094029147

  position of ions in fractional coordinates (direct lattice)
     0.000000134  0.000245367  0.999999878
     0.999647477  0.166966284  0.166585440
     0.166323474  0.000171308  0.166323375
     0.166585438  0.166966196  0.999647342
     0.249371410  0.083700290  0.249371513
     0.083155667  0.083670514  0.083155600
     0.082729068  0.250317552  0.249687447
     0.249687391  0.250317583  0.082728935
     0.333274241  0.000407846  0.999672060
     0.332889220  0.166356526  0.165526935
     0.499712137  0.001441213  0.165455204
     0.499999891  0.166765954  0.999999921
     0.583245181  0.083823091  0.249758271
     0.416535775  0.083814646  0.082482789
     0.415974344  0.248745816  0.248398607
     0.583160500  0.249735093  0.082861508
     0.666725608  0.000407917  0.000327752
     0.666594390  0.167060363  0.166756068
     0.833104931  0.000319930  0.166895048
     0.833414593  0.166966222  0.000352609
     0.916354371  0.083668030  0.250020140
     0.749979834  0.083668019  0.083645682
     0.749671062  0.250484492  0.250328973
     0.916481403  0.250420020  0.083518641
     0.000000096  0.333625179  0.999999993
     0.999175256  0.500378740  0.166378899
     0.165879321  0.333490491  0.165879317
     0.166378988  0.500378758  0.999174925
     0.248711392  0.416510257  0.248711480
     0.082894159  0.417034001  0.082893908
     0.082074166  0.583685592  0.249011839
     0.249011803  0.583685599  0.082073828
     0.333209843  0.333643507  0.999480238
     0.331519298  0.500515324  0.164937223
     0.499922048  0.332178323  0.165234106
     0.499999820  0.500415251  0.999999823
     0.582187749  0.415945034  0.249486861
     0.416319791  0.416848022  0.082726862
     0.415650413  0.582520831  0.248433437
     0.583147904  0.583696957  0.083852571
     0.666790051  0.333643440  0.000519611
     0.665902228  0.500480904  0.167755282
     0.832953026  0.333820435  0.167046988
     0.833621142  0.500378712  0.000824785
     0.915836585  0.417301454  0.250288311
     0.749711688  0.417301482  0.084163447
     0.747542289  0.584707054  0.252457609
     0.916378308  0.583829641  0.083621712
     0.000000202  0.667023815  0.999999821
     0.999534316  0.833620444  0.166629682
     0.165344684  0.667202317  0.165344546
     0.166629955  0.833620315  0.999533897
     0.248111163  0.750377871  0.248111266
     0.082750758  0.750449796  0.082750456
     0.082773263  0.917057167  0.249760634
     0.249760600  0.917057089  0.082773022
     0.333282488  0.666990296  0.999451467
     0.333037749  0.834067179  0.165827434
     0.499886582  0.666984988  0.166886080
     0.499999844  0.833774109  0.999999776
     0.583149194  0.750190624  0.251051052
     0.416608191  0.750253648  0.083155080
     0.416777755  0.919224859  0.247970494
     0.583302002  0.917341469  0.083138917
     0.666717241  0.666990291  0.000548015
     0.665980545  0.834140341  0.166621075
     0.832720011  0.666695591  0.167279942
     0.833370273  0.833620418  0.000465679
     0.916064051  0.750403117  0.250320700
     0.749679218  0.750403097  0.083935926
     0.749694063  0.917019561  0.250305870
     0.916462056  0.917015047  0.083537925
     0.999672318  0.000407966  0.333274341
     0.000000150  0.166765954  0.500000096
     0.165455242  0.001441209  0.499712272
     0.165526980  0.166356538  0.332889371
     0.249758313  0.083822958  0.583245454
     0.082483048  0.083814608  0.416536017
     0.082861766  0.249735160  0.583160769
     0.248398505  0.248745783  0.415974631
     0.332703939  0.001172061  0.332704040
     0.332971395  0.166722888  0.499759921
     0.499999925  0.000621427  0.500000020
     0.499759747  0.166722905  0.332971503
     0.583554450  0.083806731  0.583554777
     0.416445166  0.083806818  0.416445491
     0.416688909  0.250037205  0.583311035
     0.583310701  0.250037266  0.416689246
     0.666550033  0.000592289  0.333449872
     0.667028454  0.166722815  0.500240206
     0.834544770  0.001441188  0.500287816
     0.833244004  0.167060358  0.333405594
     0.917517240  0.083814583  0.583464128
     0.750241765  0.083823026  0.416754707
     0.751601514  0.248745598  0.584025647
     0.917138627  0.249735037  0.416839429
     0.999480534  0.333643505  0.333209978
     0.000000310  0.500415250  0.500000085
     0.165234271  0.332178444  0.499922291
     0.164937445  0.500515322  0.331519555
     0.249486667  0.415944972  0.582188232
     0.082727120  0.416847982  0.416320086
     0.083852971  0.583696929  0.583148186
     0.248433339  0.582520918  0.415650818
     0.330764988  0.329784792  0.330765214
     0.324623761  0.491364825  0.492559400
     0.499999895  0.332249309  0.500000106
     0.492559092  0.491365027  0.324624040
     0.587557108  0.411751926  0.587557430
     0.412442382  0.411751991  0.412442728
     0.666262148  0.333686566  0.333737786
     0.675375600  0.491365284  0.507441209
     0.834766007  0.332178202  0.500078001
     0.832244681  0.500480879  0.334097687
     0.917273331  0.416847921  0.583680160
     0.750513398  0.415944775  0.417811889
     0.751566676  0.582520720  0.584349574
     0.916147464  0.583696886  0.416851963
     0.999451978  0.666990319  0.333282629
     0.000000158  0.833774100  0.500000024
     0.166886406  0.666984961  0.499886925
     0.165827548  0.834067205  0.333037845
     0.251051013  0.750190601  0.583149547
     0.083155587  0.750253629  0.416608599
     0.083139334  0.917341291  0.583302239
     0.247970500  0.919224703  0.416778156
     0.331294160  0.669157124  0.331294254
     0.331668217  0.836329688  0.498622359
     0.498622122  0.836329901  0.331668243
     0.592767112  0.763289970  0.592767535
     0.407232351  0.763290416  0.407232757
     0.416748676  0.917673610  0.583251207
     0.583250878  0.917673703  0.416749000
     0.666829998  0.669775921  0.333170017
     0.668331763  0.836330068  0.501377824
     0.833114041  0.666985091  0.500113388
     0.833378950  0.834140402  0.334019322
     0.916844937  0.750253681  0.583391695
     0.748948817  0.750190627  0.416850652
     0.752029477  0.919224929  0.583222073
     0.916861075  0.917341521  0.416697859
     0.000328006  0.000407788  0.666725698
     0.000352738  0.166966128  0.833414587
     0.166895205  0.000319676  0.833104762
     0.166756135  0.167060332  0.666594488
     0.250020124  0.083667942  0.916354167
     0.083645879  0.083667927  0.749979842
     0.083518743  0.250420017  0.916481295
     0.250329012  0.250484595  0.749671025
     0.333449810  0.000592170  0.666550096
     0.333405499  0.167060327  0.833243938
     0.500287702  0.001441194  0.834544734
     0.500240039  0.166722803  0.667028561
     0.583463899  0.083814550  0.917516986
     0.416754443  0.083822894  0.750241718
     0.416839166  0.249735102  0.917138363
     0.584025369  0.248745570  0.751601615
     0.667295929  0.001172055  0.667296023
     0.667110666  0.166356419  0.834473127
     0.833676667  0.000171276  0.833676565
     0.834473176  0.166356404  0.667110804
     0.916844439  0.083670501  0.916844374
     0.750628523  0.083700241  0.750628621
     0.750312581  0.250317481  0.917271039
     0.917271169  0.250317510  0.750312633
     0.000519901  0.333643448  0.666790184
     0.000825113  0.500378722  0.833621051
     0.167047046  0.333820461  0.832952966
     0.167755593  0.500481110  0.665902322
     0.250288376  0.417301593  0.915836179
     0.084163848  0.417301618  0.749711621
     0.083622107  0.583829635  0.916377907
     0.252457670  0.584707077  0.747542217
     0.333737744  0.333686696  0.666262202
     0.334097585  0.500481092  0.832244368
     0.500077774  0.332178322  0.834765844
     0.507440912  0.491365096  0.675375862
     0.583679853  0.416847874  0.917273085
     0.417811418  0.415944726  0.750513583
     0.416851660  0.583696863  0.916147067
     0.584349151  0.582520812  0.751566789
     0.669234976  0.329784452  0.669235194
     0.668480539  0.500515145  0.835062878
     0.834120892  0.333490303  0.834120887
     0.835063089  0.500515150  0.668480815
     0.917106146  0.417033972  0.917105900
     0.751288668  0.416510075  0.751288765
     0.750988245  0.583685557  0.917925973
     0.917926307  0.583685558  0.750988286
     0.000548524  0.666990252  0.666717375
     0.000466091  0.833620283  0.833369995
     0.167280234  0.666695561  0.832719717
     0.166621300  0.834140128  0.665980659
     0.250320783  0.750403048  0.916063607
     0.083936361  0.750403025  0.749679132
     0.083538119  0.917014941  0.916461853
     0.250305979  0.917019300  0.749693948
     0.333169918  0.669775874  0.666830104
     0.334019206  0.834140197  0.833378714
     0.500113017  0.666985070  0.833113723
     0.501377599  0.836329859  0.668331798
     0.583391273  0.750253674  0.916844436
     0.416850295  0.750190611  0.748948853
     0.416697627  0.917341356  0.916860657
     0.583221685  0.919224775  0.752029477
     0.668705589  0.669157239  0.668705692
     0.666962080  0.834067191  0.834172390
     0.834655457  0.667202297  0.834655316
     0.834172499  0.834067165  0.666962172
     0.917249561  0.750449794  0.917249267
     0.751888829  0.750377933  0.751888939
     0.750239360  0.917057162  0.917226775
     0.917227011  0.917057082  0.750239390
     0.499999617  0.605482879  0.500000403

  ion indices of the primitive-cell ions
   primitive index   ion index
                 1           1
                 2           2
                 3           3
                 4           4
                 5           5
                 6           6
                 7           7
                 8           8
                 9           9
                10          10
                11          11
                12          12
                13          13
                14          14
                15          15
                16          16
                17          17
                18          18
                19          19
                20          20
                21          21
                22          22
                23          23
                24          24
                25          25
                26          26
                27          27
                28          28
                29          29
                30          30
                31          31
                32          32
                33          33
                34          34
                35          35
                36          36
                37          37
                38          38
                39          39
                40          40
                41          41
                42          42
                43          43
                44          44
                45          45
                46          46
                47          47
                48          48
                49          49
                50          50
                51          51
                52          52
                53          53
                54          54
                55          55
                56          56
                57          57
                58          58
                59          59
                60          60
                61          61
                62          62
                63          63
                64          64
                65          65
                66          66
                67          67
                68          68
                69          69
                70          70
                71          71
                72          72
                73          73
                74          74
                75          75
                76          76
                77          77
                78          78
                79          79
                80          80
                81          81
                82          82
                83          83
                84          84
                85          85
                86          86
                87          87
                88          88
                89          89
                90          90
                91          91
                92          92
                93          93
                94          94
                95          95
                96          96
                97          97
                98          98
                99          99
               100         100
               101         101
               102         102
               103         103
               104         104
               105         105
               106         106
               107         107
               108         108
               109         109
               110         110
               111         111
               112         112
               113         113
               114         114
               115         115
               116         116
               117         117
               118         118
               119         119
               120         120
               121         121
               122         122
               123         123
               124         124
               125         125
               126         126
               127         127
               128         128
               129         129
               130         130
               131         131
               132         132
               133         133
               134         134
               135         135
               136         136
               137         137
               138         138
               139         139
               140         140
               141         141
               142         142
               143         143
               144         144
               145         145
               146         146
               147         147
               148         148
               149         149
               150         150
               151         151
               152         152
               153         153
               154         154
               155         155
               156         156
               157         157
               158         158
               159         159
               160         160
               161         161
               162         162
               163         163
               164         164
               165         165
               166         166
               167         167
               168         168
               169         169
               170         170
               171         171
               172         172
               173         173
               174         174
               175         175
               176         176
               177         177
               178         178
               179         179
               180         180
               181         181
               182         182
               183         183
               184         184
               185         185
               186         186
               187         187
               188         188
               189         189
               190         190
               191         191
               192         192
               193         193
               194         194
               195         195
               196         196
               197         197
               198         198
               199         199
               200         200
               201         201
               202         202
               203         203
               204         204
               205         205
               206         206
               207         207
               208         208
               209         209
               210         210
               211         211
               212         212
               213         213
               214         214

----------------------------------------------------------------------------------------

 
 
 KPOINTS: 1 x 1 x 1 k-mesh (automatic generation o

Automatic generation of k-mesh.
 Grid dimensions read from file:
 generate k-points for:    1    1    1

 Generating k-lattice:

  Cartesian coordinates                     Fractional coordinates (reciprocal lattice)
     0.094029147  0.000000000  0.000000000     1.000000000  0.000000000  0.000000000
     0.000000000  0.094029147  0.000000000     0.000000000  1.000000000  0.000000000
     0.000000000  0.000000000  0.094029147     0.000000000  0.000000000  1.000000000

  Length of vectors
     0.094029147  0.094029147  0.094029147

  Shift w.r.t. Gamma in fractional coordinates (k-lattice)
     0.000000000  0.000000000  0.000000000

 
 Subroutine IBZKPT returns following result:
 ===========================================
 
 Found      1 irreducible k-points:
 
 Following reciprocal coordinates:
            Coordinates               Weight
  0.000000  0.000000  0.000000      1.000000
 
 Following cartesian coordinates:
            Coordinates               Weight
  0.000000  0.000000  0.000000      1.000000
 
 
 Subroutine IBZKPT_HF returns following result:
 ==============================================
 
 Found      1 k-points in 1st BZ
 the following      1 k-points will be used (e.g. in the exchange kernel)
 Following reciprocal coordinates:   # in IRBZ
  0.000000  0.000000  0.000000    1.00000000   1 t-inv F


--------------------------------------------------------------------------------------------------------




 Dimension of arrays:
   k-points           NKPTS =      1   k-points in BZ     NKDIM =      1   number of bands    NBANDS=    651
   number of dos      NEDOS =    301   number of ions     NIONS =    214
   non local maximal  LDIM  =      8   non local SUM 2l+1 LMDIM =     32
   total plane-waves  NPLWV = 884736
   max r-space proj   IRMAX =      1   max aug-charges    IRDMAX=  39184
   dimension x,y,z NGX =    96 NGY =   96 NGZ =   96
   dimension x,y,z NGXF=   192 NGYF=  192 NGZF=  192
   support grid    NGXF=   192 NGYF=  192 NGZF=  192
   ions per type =             213   1
   NGX,Y,Z   is equivalent  to a cutoff of  15.01, 15.01, 15.01 a.u.
   NGXF,Y,Z  is equivalent  to a cutoff of  30.01, 30.01, 30.01 a.u.

 SYSTEM =  unknown system                          
 POSCAR =  prv2                                    

 Startparameter for this run:
   NWRITE =      2    write-flag & timer
   PREC   = accura    normal or accurate (medium, high low for compatibility)
   ISTART =      1    job   : 0-new  1-cont  2-samecut
   ICHARG =      0    charge: 1-file 2-atom 10-const
   ISPIN  =      2    spin polarized calculation?
   LNONCOLLINEAR =      F non collinear calculations
   LSORBIT =      F    spin-orbit coupling
   INIWAV =      1    electr: 0-lowe 1-rand  2-diag
   LASPH  =      F    aspherical Exc in radial PAW
 Electronic Relaxation 1
   ENCUT  =  700.0 eV  51.45 Ry    7.17 a.u.  22.94 22.94 22.94*2*pi/ulx,y,z
   ENINI  =  700.0     initial cutoff
   ENAUG  = 1400.0 eV  augmentation charge cutoff
   NELM   =     60;   NELMIN=  2; NELMDL=  0     # of ELM steps 
   EDIFF  = 0.1E-05   stopping-criterion for ELM
   LREAL  =      F    real-space projection
   NLSPLINE    = F    spline interpolate recip. space projectors
   LCOMPAT=      F    compatible to vasp.4.4
   GGA_COMPAT  = T    GGA compatible to vasp.4.4-vasp.4.6
   LMAXPAW     = -100 max onsite density
   LMAXMIX     =    2 max onsite mixed and CHGCAR
   VOSKOWN=      0    Vosko Wilk Nusair interpolation
   ROPT   =    0.00000   0.00000
 Ionic relaxation
   EDIFFG = -.1E-01   stopping-criterion for IOM
   NSW    =      0    number of steps for IOM
   NBLOCK =      1;   KBLOCK =      1    inner block; outer block 
   IBRION =     -1    ionic relax: 0-MD 1-quasi-New 2-CG
   NFREE  =      1    steps in history (QN), initial steepest desc. (CG)
   ISIF   =      1    stress and relaxation
   IWAVPR =     10    prediction:  0-non 1-charg 2-wave 3-comb
   ISYM   =      0    0-nonsym 1-usesym 2-fastsym
   LCORR  =      T    Harris-Foulkes like correction to forces

   POTIM  = 0.2000    time-step for ionic-motion
   TEIN   =    0.0    initial temperature
   TEBEG  =    0.0;   TEEND  =   0.0 temperature during run
   SMASS  =  -3.00    Nose mass-parameter (am)
   estimated Nose-frequenzy (Omega)   =  0.10E-29 period in steps = 0.31E+47 mass=  -0.258E-26a.u.
   SCALEE = 1.0000    scale energy and forces
   NPACO  =    256;   APACO  = 16.0  distance and # of slots for P.C.
   PSTRESS=    0.0 pullay stress

  Mass of Ions in am
   POMASS =  12.01140.91
  Ionic Valenz
   ZVAL   =   4.00 13.00
  Atomic Wigner-Seitz radii
   RWIGS  =  -1.00 -1.00
  virtual crystal weights 
   VCA    =   1.00  1.00
   NELECT =     868.0000    total number of electrons
   NUPDOWN=      -1.0000    fix difference up-down

 DOS related values:
   EMIN   =  10.00;   EMAX   =-10.00  energy-range for DOS
   EFERMI =   0.00
   ISMEAR =     0;   SIGMA  =   0.01  broadening in eV -4-tet -1-fermi 0-gaus

 Electronic relaxation 2 (details)
   IALGO  =     58    algorithm
   LDIAG  =      T    sub-space diagonalisation (order eigenvalues)
   LSUBROT=      F    optimize rotation matrix (better conditioning)
   TURBO    =      0    0=normal 1=particle mesh
   IRESTART =      0    0=no restart 2=restart with 2 vectors
   NREBOOT  =      0    no. of reboots
   NMIN     =      0    reboot dimension
   EREF     =   0.00    reference energy to select bands
   IMIX   =      4    mixing-type and parameters
     AMIX     =   0.40;   BMIX     =  1.00
     AMIX_MAG =   1.60;   BMIX_MAG =  1.00
     AMIN     =   0.10
     WC   =   100.;   INIMIX=   1;  MIXPRE=   1;  MAXMIX= -45

 Intra band minimization:
   WEIMIN = 0.0000     energy-eigenvalue tresh-hold
   EBREAK =  0.38E-09  absolut break condition
   DEPER  =   0.30     relativ break condition  

   TIME   =   0.40     timestep for ELM

  volume/ion in A,a.u.               =       5.62        37.93
  Fermi-wavevector in a.u.,A,eV,Ry     =   1.468398  2.774871 29.336798  2.156194
  Thomas-Fermi vector in A             =   2.583901
 
 Write flags
   LWAVE        =      T    write WAVECAR
   LDOWNSAMPLE  =      F    k-point downsampling of WAVECAR
   LCHARG       =      T    write CHGCAR
   LVTOT        =      F    write LOCPOT, total local potential
   LVHAR        =      F    write LOCPOT, Hartree potential only
   LELF         =      F    write electronic localiz. function (ELF)
   LORBIT       =      0    0 simple, 1 ext, 2 COOP (PROOUT), +10 PAW based schemes


 Dipole corrections
   LMONO  =      F    monopole corrections only (constant potential shift)
   LDIPOL =      F    correct potential (dipole corrections)
   IDIPOL =      0    1-x, 2-y, 3-z, 4-all directions 
   EPSILON=  1.0000000 bulk dielectric constant

 Exchange correlation treatment:
   GGA     =    PE    GGA type
   LEXCH   =     8    internal setting for exchange type
   VOSKOWN=      0    Vosko Wilk Nusair interpolation
   EXXOEP  =     0    0=HF, 1=EXX-LHF (local Hartree Fock) 2=EXX OEP
   LHFCALC =     T    Hartree Fock is set to
   LSYMGRAD=     F    symmetrize gradient (conserves proper symmetry)
   PRECFOCK=normal    Normal, Fast or Accurate (Low or Medium for compatibility)
   LRHFCALC=     F    long range Hartree Fock
   LRSCOR  =     F    long range correlation only (use DFT for short range part)
   LTHOMAS =     F    Thomas Fermi screening in HF
   LMODELHF=     F    short range full HF, long range fraction AEXX
   LFOCKACE=     T    use Adeptively-Compressed-Exchange operator
   ENCUT4O =  -1.0   cutoff for four orbital integrals eV
   LMAXFOCK=     4    L truncation for augmentation on plane wave grid
   LMAXFOCKAE=  -1    L truncation for all-electron charge restoration on plane wave grid
   NMAXFOCKAE=   1    number of basis functions for all-electron charge restoration
   LFOCKAEDFT=     F  apply the AE augmentation even for DFT
   NKREDX  =     1    reduce k-point grid by
   NKREDY  =     1    reduce k-point grid by
   NKREDZ  =     1    reduce k-point grid by
   SHIFTRED=     F    shift reduced grid of Gamma
   HFKIDENT=     F    idential grid for each k-point
   ODDONLY =     F    use only odd q-grid points
   EVENONLY=     F    use only even q-grid points
   HFALPHA =   -1.0000 decay constant for conv. correction
   MCALPHA =    0.0000 extent of test-charge in conv. correction in multipole expansion
   AEXX    =    0.2500 exact exchange contribution
   HFSCREEN=    0.2000 screening length (either q_TF or 0.3 A-1)
   HFSCREENC=   0.2000 screening length for correlation (either q_TF or 0.3 A-1)
   HFRCUT  =    0.0000 spherical cutoff for potential kernel
   ALDAX   =    0.7500 LDA exchange part
   AGGAX   =    0.7500 GGA exchange part
   ALDAC   =    1.0000 LDA correlation
   AGGAC   =    1.0000 GGA correlation
   ENCUTFOCK=  -1.0 apply spherical cutoff to Coloumb kernel
   NBANDSGWLOW=     1    first orbital included in HF term
   NBLOCK_FOCK=    64    blocking factor in FOCK_ACC
 Linear response parameters
   LEPSILON=     F    determine dielectric tensor
   LRPA    =     F    only Hartree local field effects (RPA)
   LNABLA  =     F    use nabla operator in PAW spheres
   LVEL    =     F    velocity operator in full k-point grid
   LINTERFAST=   F  fast interpolation
   KINTER  =     0    interpolate to denser k-point grid
   CSHIFT  =0.1000    complex shift for real part using Kramers Kronig
   OMEGAMAX=  -1.0    maximum frequency
   DEG_THRESHOLD= 0.2000000E-02 threshold for treating states as degnerate
   RTIME   =   -0.100 relaxation time in fs
  (WPLASMAI=    0.000 imaginary part of plasma frequency in eV, 0.658/RTIME)
   DFIELD  = 0.0000000 0.0000000 0.0000000 field for delta impulse in time
 
 Orbital magnetization related:
   ORBITALMAG=     F  switch on orbital magnetization
   LCHIMAG   =     F  perturbation theory with respect to B field
   DQ        =  0.001000  dq finite difference perturbation B field
   LLRAUG    =     F  two centre corrections for induced B field



--------------------------------------------------------------------------------------------------------


 Static calculation
 charge density and potential will be updated during run
 spin polarized calculation
 Conjugate gradient for all bands (Freysoldt, et al. PRB 79, 241103 (2009))
 preconditioned conjugated gradient                                        
 perform sub-space diagonalisation
    before iterative eigenvector-optimisation
 modified Broyden-mixing scheme, WC =      100.0
 initial mixing is a Kerker type mixing with AMIX =  0.4000 and BMIX =      1.0000
 Hartree-type preconditioning will be used
 using additional bands          217
 reciprocal scheme for non local part
 use partial core corrections
 no Harris-corrections to forces 
 use gradient corrections 
 use of overlap-Matrix (Vanderbilt PP)
 Gauss-broadening in eV      SIGMA  =   0.01


--------------------------------------------------------------------------------------------------------


  energy-cutoff  :      700.00
  volume of cell :     1202.85
      direct lattice vectors                 reciprocal lattice vectors
    10.635000229  0.000000000  0.000000000     0.094029147  0.000000000  0.000000000
     0.000000000 10.635000229  0.000000000     0.000000000  0.094029147  0.000000000
     0.000000000  0.000000000 10.635000229     0.000000000  0.000000000  0.094029147

  length of vectors
    10.635000229 10.635000229 10.635000229     0.094029147  0.094029147  0.094029147


 
 old parameters found on file WAVECAR:
  energy-cutoff  :      700.00
  volume of cell :     1202.85
      direct lattice vectors                 reciprocal lattice vectors
    10.635000229  0.000000000  0.000000000     0.094029147  0.000000000  0.000000000
     0.000000000 10.635000229  0.000000000     0.000000000  0.094029147  0.000000000
     0.000000000  0.000000000 10.635000229     0.000000000  0.000000000  0.094029147

  length of vectors

 
 k-points in units of 2pi/SCALE and weight: 1 x 1 x 1 k-mesh (automatic generation o
   0.00000000  0.00000000  0.00000000       1.000
 
 k-points in reciprocal lattice and weights: 1 x 1 x 1 k-mesh (automatic generation o
   0.00000000  0.00000000  0.00000000       1.000
 
 position of ions in fractional coordinates (direct lattice) 
   0.00000013  0.00024537  0.99999988
   0.99964748  0.16696628  0.16658544
   0.16632347  0.00017131  0.16632337
   0.16658544  0.16696620  0.99964734
   0.24937141  0.08370029  0.24937151
   0.08315567  0.08367051  0.08315560
   0.08272907  0.25031755  0.24968745
   0.24968739  0.25031758  0.08272893
   0.33327424  0.00040785  0.99967206
   0.33288922  0.16635653  0.16552694
   0.49971214  0.00144121  0.16545520
   0.49999989  0.16676595  0.99999992
   0.58324518  0.08382309  0.24975827
   0.41653577  0.08381465  0.08248279
   0.41597434  0.24874582  0.24839861
   0.58316050  0.24973509  0.08286151
   0.66672561  0.00040792  0.00032775
   0.66659439  0.16706036  0.16675607
   0.83310493  0.00031993  0.16689505
   0.83341459  0.16696622  0.00035261
   0.91635437  0.08366803  0.25002014
   0.74997983  0.08366802  0.08364568
   0.74967106  0.25048449  0.25032897
   0.91648140  0.25042002  0.08351864
   0.00000010  0.33362518  0.99999999
   0.99917526  0.50037874  0.16637890
   0.16587932  0.33349049  0.16587932
   0.16637899  0.50037876  0.99917492
   0.24871139  0.41651026  0.24871148
   0.08289416  0.41703400  0.08289391
   0.08207417  0.58368559  0.24901184
   0.24901180  0.58368560  0.08207383
   0.33320984  0.33364351  0.99948024
   0.33151930  0.50051532  0.16493722
   0.49992205  0.33217832  0.16523411
   0.49999982  0.50041525  0.99999982
   0.58218775  0.41594503  0.24948686
   0.41631979  0.41684802  0.08272686
   0.41565041  0.58252083  0.24843344
   0.58314790  0.58369696  0.08385257
   0.66679005  0.33364344  0.00051961
   0.66590223  0.50048090  0.16775528
   0.83295303  0.33382043  0.16704699
   0.83362114  0.50037871  0.00082479
   0.91583658  0.41730145  0.25028831
   0.74971169  0.41730148  0.08416345
   0.74754229  0.58470705  0.25245761
   0.91637831  0.58382964  0.08362171
   0.00000020  0.66702382  0.99999982
   0.99953432  0.83362044  0.16662968
   0.16534468  0.66720232  0.16534455
   0.16662996  0.83362031  0.99953390
   0.24811116  0.75037787  0.24811127
   0.08275076  0.75044980  0.08275046
   0.08277326  0.91705717  0.24976063
   0.24976060  0.91705709  0.08277302
   0.33328249  0.66699030  0.99945147
   0.33303775  0.83406718  0.16582743
   0.49988658  0.66698499  0.16688608
   0.49999984  0.83377411  0.99999978
   0.58314919  0.75019062  0.25105105
   0.41660819  0.75025365  0.08315508
   0.41677775  0.91922486  0.24797049
   0.58330200  0.91734147  0.08313892
   0.66671724  0.66699029  0.00054801
   0.66598054  0.83414034  0.16662108
   0.83272001  0.66669559  0.16727994
   0.83337027  0.83362042  0.00046568
   0.91606405  0.75040312  0.25032070
   0.74967922  0.75040310  0.08393593
   0.74969406  0.91701956  0.25030587
   0.91646206  0.91701505  0.08353792
   0.99967232  0.00040797  0.33327434
   0.00000015  0.16676595  0.50000010
   0.16545524  0.00144121  0.49971227
   0.16552698  0.16635654  0.33288937
   0.24975831  0.08382296  0.58324545
   0.08248305  0.08381461  0.41653602
   0.08286177  0.24973516  0.58316077
   0.24839851  0.24874578  0.41597463
   0.33270394  0.00117206  0.33270404
   0.33297139  0.16672289  0.49975992
   0.49999992  0.00062143  0.50000002
   0.49975975  0.16672290  0.33297150
   0.58355445  0.08380673  0.58355478
   0.41644517  0.08380682  0.41644549
   0.41668891  0.25003720  0.58331104
   0.58331070  0.25003727  0.41668925
   0.66655003  0.00059229  0.33344987
   0.66702845  0.16672282  0.50024021
   0.83454477  0.00144119  0.50028782
   0.83324400  0.16706036  0.33340559
   0.91751724  0.08381458  0.58346413
   0.75024176  0.08382303  0.41675471
   0.75160151  0.24874560  0.58402565
   0.91713863  0.24973504  0.41683943
   0.99948053  0.33364350  0.33320998
   0.00000031  0.50041525  0.50000008
   0.16523427  0.33217844  0.49992229
   0.16493744  0.50051532  0.33151955
   0.24948667  0.41594497  0.58218823
   0.08272712  0.41684798  0.41632009
   0.08385297  0.58369693  0.58314819
   0.24843334  0.58252092  0.41565082
   0.33076499  0.32978479  0.33076521
   0.32462376  0.49136482  0.49255940
   0.49999990  0.33224931  0.50000011
   0.49255909  0.49136503  0.32462404
   0.58755711  0.41175193  0.58755743
   0.41244238  0.41175199  0.41244273
   0.66626215  0.33368657  0.33373779
   0.67537560  0.49136528  0.50744121
   0.83476601  0.33217820  0.50007800
   0.83224468  0.50048088  0.33409769
   0.91727333  0.41684792  0.58368016
   0.75051340  0.41594478  0.41781189
   0.75156668  0.58252072  0.58434957
   0.91614746  0.58369689  0.41685196
   0.99945198  0.66699032  0.33328263
   0.00000016  0.83377410  0.50000002
   0.16688641  0.66698496  0.49988693
   0.16582755  0.83406721  0.33303784
   0.25105101  0.75019060  0.58314955
   0.08315559  0.75025363  0.41660860
   0.08313933  0.91734129  0.58330224
   0.24797050  0.91922470  0.41677816
   0.33129416  0.66915712  0.33129425
   0.33166822  0.83632969  0.49862236
   0.49862212  0.83632990  0.33166824
   0.59276711  0.76328997  0.59276753
   0.40723235  0.76329042  0.40723276
   0.41674868  0.91767361  0.58325121
   0.58325088  0.91767370  0.41674900
   0.66683000  0.66977592  0.33317002
   0.66833176  0.83633007  0.50137782
   0.83311404  0.66698509  0.50011339
   0.83337895  0.83414040  0.33401932
   0.91684494  0.75025368  0.58339169
   0.74894882  0.75019063  0.41685065
   0.75202948  0.91922493  0.58322207
   0.91686108  0.91734152  0.41669786
   0.00032801  0.00040779  0.66672570
   0.00035274  0.16696613  0.83341459
   0.16689521  0.00031968  0.83310476
   0.16675613  0.16706033  0.66659449
   0.25002012  0.08366794  0.91635417
   0.08364588  0.08366793  0.74997984
   0.08351874  0.25042002  0.91648130
   0.25032901  0.25048460  0.74967103
   0.33344981  0.00059217  0.66655010
   0.33340550  0.16706033  0.83324394
   0.50028770  0.00144119  0.83454473
   0.50024004  0.16672280  0.66702856
   0.58346390  0.08381455  0.91751699
   0.41675444  0.08382289  0.75024172
   0.41683917  0.24973510  0.91713836
   0.58402537  0.24874557  0.75160162
   0.66729593  0.00117205  0.66729602
   0.66711067  0.16635642  0.83447313
   0.83367667  0.00017128  0.83367657
   0.83447318  0.16635640  0.66711080
   0.91684444  0.08367050  0.91684437
   0.75062852  0.08370024  0.75062862
   0.75031258  0.25031748  0.91727104
   0.91727117  0.25031751  0.75031263
   0.00051990  0.33364345  0.66679018
   0.00082511  0.50037872  0.83362105
   0.16704705  0.33382046  0.83295297
   0.16775559  0.50048111  0.66590232
   0.25028838  0.41730159  0.91583618
   0.08416385  0.41730162  0.74971162
   0.08362211  0.58382964  0.91637791
   0.25245767  0.58470708  0.74754222
   0.33373774  0.33368670  0.66626220
   0.33409758  0.50048109  0.83224437
   0.50007777  0.33217832  0.83476584
   0.50744091  0.49136510  0.67537586
   0.58367985  0.41684787  0.91727308
   0.41781142  0.41594473  0.75051358
   0.41685166  0.58369686  0.91614707
   0.58434915  0.58252081  0.75156679
   0.66923498  0.32978445  0.66923519
   0.66848054  0.50051515  0.83506288
   0.83412089  0.33349030  0.83412089
   0.83506309  0.50051515  0.66848081
   0.91710615  0.41703397  0.91710590
   0.75128867  0.41651007  0.75128876
   0.75098825  0.58368556  0.91792597
   0.91792631  0.58368556  0.75098829
   0.00054852  0.66699025  0.66671737
   0.00046609  0.83362028  0.83337000
   0.16728023  0.66669556  0.83271972
   0.16662130  0.83414013  0.66598066
   0.25032078  0.75040305  0.91606361
   0.08393636  0.75040302  0.74967913
   0.08353812  0.91701494  0.91646185
   0.25030598  0.91701930  0.74969395
   0.33316992  0.66977587  0.66683010
   0.33401921  0.83414020  0.83337871
   0.50011302  0.66698507  0.83311372
   0.50137760  0.83632986  0.66833180
   0.58339127  0.75025367  0.91684444
   0.41685030  0.75019061  0.74894885
   0.41669763  0.91734136  0.91686066
   0.58322169  0.91922477  0.75202948
   0.66870559  0.66915724  0.66870569
   0.66696208  0.83406719  0.83417239
   0.83465546  0.66720230  0.83465532
   0.83417250  0.83406717  0.66696217
   0.91724956  0.75044979  0.91724927
   0.75188883  0.75037793  0.75188894
   0.75023936  0.91705716  0.91722678
   0.91722701  0.91705708  0.75023939
   0.49999962  0.60548288  0.50000040
 
 position of ions in cartesian coordinates  (Angst):
   0.00000143  0.00260948 10.63499893
  10.63125114  1.77568647  1.77163619
   1.76885019  0.00182186  1.76884913
   1.77163617  1.77568554 10.63124971
   2.65206500  0.89015261  2.65206610
   0.88436053  0.88983593  0.88435983
   0.87982366  2.66212722  2.65542605
   2.65542546  2.66212755  0.87982224
   3.54437163  0.00433744 10.63151259
   3.54027693  1.76920169  1.76037899
   5.31443869  0.01532730  1.75961614
   5.31749896  1.77355596 10.63499938
   6.20281264  0.89145859  2.65617927
   4.42985806  0.89136878  0.87720448
   4.42388725  2.64541181  2.64171925
   6.20191205  2.65593277  0.88123216
   7.09062700  0.00433820  0.00348564
   7.08923149  1.77668700  1.77345083
   8.86007113  0.00340246  1.77492887
   8.86336438  1.77568581  0.00375000
   9.74542894  0.88980952  2.65896425
   7.97603570  0.88980940  0.88957185
   7.97275192  2.66390263  2.66224869
   9.74677993  2.66321697  0.88822077
   0.00000102  3.54810386 10.63500015
  10.62622907  5.32152801  1.76943963
   1.76412661  3.54667145  1.76412658
   1.76944057  5.32152820 10.62622555
   2.64504572  4.42958668  2.64504665
   0.88157940  4.43515670  0.88157673
   0.87285878  6.20749641  2.64824096
   2.64824058  6.20749648  0.87285518
   3.54368676  3.54829878 10.62947256
   3.52570781  5.32298059  1.75410741
   5.31667110  3.53271655  1.75726475
   5.31749820  5.32191630 10.63499834
   6.19156685  4.42357553  2.65329282
   4.42756107  4.43317880  0.87980020
   4.42044224  6.19510917  2.64208966
   6.20177809  6.20761727  0.89177211
   7.09131234  3.54829806  0.00552607
   7.08187035  5.32261452  1.78407746
   8.85845563  3.55018040  1.77654476
   8.86556104  5.32152771  0.00877159
   9.73992229  4.43800106  2.66181625
   7.97318398  4.43800135  0.89507828
   7.95011242  6.21835965  2.68488673
   9.74568351  6.20902836  0.88931692
   0.00000215  7.09379843 10.63499833
  10.63004768  8.86555361  1.77210671
   1.75844076  7.09569680  1.75843928
   1.77210961  8.86555224 10.63004323
   2.63866228  7.98026883  2.63866337
   0.88005433  7.98103375  0.88005112
   0.88029367  9.75290318  2.65620440
   2.65620404  9.75290235  0.88029111
   3.54445934  7.09344195 10.62916658
   3.54185653  8.87030463  1.76357480
   5.31629391  7.09338550  1.77483350
   5.31749845  8.86718784 10.63499785
   6.20179181  7.97827745  2.66992800
   4.43062820  7.97894771  0.88435429
   4.43243152  9.77595658  2.63716626
   6.20341692  9.75592673  0.88418240
   7.09053801  7.09344189  0.00582814
   7.08270325  8.87108271  1.77201517
   8.85597751  7.09030777  1.77902222
   8.86289304  8.86555333  0.00495249
   9.74234140  7.98053732  2.66216070
   7.97283866  7.98053711  0.89265859
   7.97299653  9.75250324  2.66200299
   9.74657418  9.75245524  0.88842585
  10.63151533  0.00433872  3.54437269
   0.00000159  1.77355595  5.31750114
   1.75961654  0.01532726  5.31444012
   1.76037947  1.76920182  3.54027854
   2.65617971  0.89145717  6.20281554
   0.87720723  0.89136838  4.42986064
   0.88123490  2.65593349  6.20191491
   2.64171816  2.64541146  4.42389030
   3.53830646  0.01246486  3.53830754
   3.54115086  1.77309796  5.31494688
   5.31749931  0.00660888  5.31750033
   5.31494503  1.77309813  3.54115201
   6.20610171  0.89128461  6.20610519
   4.42889444  0.89128552  4.42889789
   4.43148664  2.65914573  6.20351299
   6.20350944  2.65914638  4.43149022
   7.08875975  0.00629900  3.54623947
   7.09384776  1.77309718  5.32005471
   8.87538382  0.01532704  5.32056104
   8.86155017  1.77668694  3.54576857
   9.75779606  0.89136811  6.20514114
   7.97882134  0.89145790  4.43218640
   7.99328227  2.64540949  6.21111289
   9.75376951  2.65593217  4.43308742
  10.62947571  3.54829875  3.54368819
   0.00000329  5.32191630  5.31750101
   1.75726651  3.53271782  5.31667368
   1.75410976  5.32298057  3.52571054
   2.65329076  4.42357487  6.19157198
   0.87980294  4.43317838  4.42756421
   0.89177637  6.20761697  6.20178109
   2.64208862  6.19511010  4.42044655
   3.51768572  3.50726133  3.51768813
   3.45237377  5.22566502  5.23836934
   5.31749900  3.53347148  5.31750125
   5.23836605  5.22566718  3.45237674
   6.24866998  4.37898183  6.24867340
   4.38632483  4.37898252  4.38632851
   7.08569809  3.54875670  3.54930143
   7.18261966  5.22566991  5.39663738
   8.87773668  3.53271525  5.31832966
   8.85092237  5.32261427  3.55312898
   9.75520209  4.43317774  6.20743864
   7.98171016  4.42357278  4.44342953
   7.99291177  6.19510799  6.21455785
   9.74322849  6.20761652  4.43322072
  10.62917202  7.09344219  3.54446083
   0.00000168  8.86718774  5.31750037
   1.77483696  7.09338521  5.31629757
   1.76357602  8.87030492  3.54185756
   2.66992758  7.97827722  6.20179557
   0.88435969  7.97894752  4.43063254
   0.88418684  9.75592484  6.20341944
   2.63716632  9.77595493  4.43243579
   3.52331347  7.11648617  3.52331447
   3.52729156  8.89436642  5.30284890
   5.30284638  8.89436869  3.52729184
   6.30407838  8.11758901  6.30408287
   4.33091614  8.11759375  4.33092046
   4.43212226  9.75945905  6.20287672
   6.20287322  9.75946004  4.43212571
   7.09173719  7.12306708  3.54326321
   7.10770846  8.89437046  5.33215327
   8.86016802  7.09338659  5.31870600
   8.86298533  8.87108336  3.55229557
   9.75064612  7.97894807  6.20437081
   7.96507084  7.97827749  4.43320678
   7.99783366  9.77595733  6.20256688
   9.75081774  9.75592729  4.43158182
   0.00348834  0.00433683  7.09062795
   0.00375137  1.77568481  8.86336432
   1.77493054  0.00339976  8.86006933
   1.77345153  1.77668666  7.08923253
   2.65896407  0.88980859  9.74542678
   0.88957395  0.88980842  7.97603579
   0.88822185  2.66321693  9.74677878
   2.66224910  2.66390373  7.97275152
   3.54623880  0.00629773  7.08876042
   3.54576756  1.77668661  8.86154947
   5.32055983  0.01532710  8.87538344
   5.32005293  1.77309704  7.09384890
   6.20513870  0.89136776  9.75779336
   4.43218360  0.89145650  7.97882085
   4.43308463  2.65593287  9.75376670
   6.21110993  2.64540920  7.99328335
   7.09669235  0.01246480  7.09669336
   7.09472209  1.76920055  8.87462190
   8.86615155  0.00182152  8.86615046
   8.87462242  1.76920040  7.09472356
   9.75064082  0.88983580  9.75064012
   7.98293452  0.89015208  7.98293555
   7.97957448  2.66212647  9.75517771
   9.75517909  2.66212678  7.97957503
   0.00552915  3.54829815  7.09131376
   0.00877508  5.32152782  8.86556007
   1.77654537  3.55018068  8.85845498
   1.78408077  5.32261672  7.08187135
   2.66181693  4.43800254  9.73991797
   0.89508255  4.43800280  7.97318326
   0.88932112  6.20902830  9.74567925
   2.68488737  6.21835990  7.95011165
   3.54930099  3.54875809  7.08569868
   3.55312789  5.32261652  8.85091904
   5.31832724  3.53271654  8.87773494
   5.39663422  5.22566791  7.18262244
   6.20743537  4.43317724  9.75519947
   4.44342453  4.42357225  7.98171213
   4.43321750  6.20761628  9.74322427
   6.21455335  6.19510897  7.99291297
   7.11731412  3.50725772  7.11731644
   7.10929069  5.32297868  8.88089390
   8.87087588  3.54666945  8.87087583
   8.88089614  5.32297874  7.10929362
   9.75342407  4.43515639  9.75342146
   7.98995516  4.42958474  7.98995618
   7.98676016  6.20749604  9.76214293
   9.76214649  6.20749604  7.98676059
   0.00583356  7.09344148  7.09053944
   0.00495688  8.86555190  8.86289009
   1.77902533  7.09030744  8.85597438
   1.77201756  8.87108046  7.08270446
   2.66216159  7.98053659  9.74233667
   0.89266322  7.98053634  7.97283775
   0.88842792  9.75245411  9.74657202
   2.66200414  9.75250047  7.97299531
   3.54326216  7.12306657  7.09173830
   3.55229434  8.87108119  8.86298281
   5.31870205  7.09338637  8.86016464
   5.33215088  8.89436825  7.10770883
   6.20436632  7.97894799  9.75064079
   4.43320299  7.97827732  7.96507123
   4.43157936  9.75592553  9.75081330
   6.20256276  9.77595569  7.99783366
   7.11168409  7.11648740  7.11168519
   7.09314187  8.87030477  8.87142356
   8.87656097  7.09569658  8.87655947
   8.87142472  8.87030449  7.09314285
   9.75494929  7.98103373  9.75494616
   7.99633787  7.98026949  7.99633904
   7.97879577  9.75290313  9.75470696
   9.75470947  9.75290228  7.97879608
   5.31749604  6.43931056  5.31750440
 


--------------------------------------------------------------------------------------------------------


 use parallel FFT for orbitals z direction half grid
 k-point   1 :   0.0000 0.0000 0.0000  plane waves:   25343

 maximum and minimum number of plane-waves per node :      3174     3163

 maximum number of plane-waves:     25343
 maximum index in each direction: 
   IXMAX=   22   IYMAX=   22   IZMAX=   22
   IXMIN=  -22   IYMIN=  -22   IZMIN=    0


 parallel 3D FFT for wavefunctions:
    minimum data exchange during FFTs selected (reduces bandwidth)
 parallel 3D FFT for charge:
    minimum data exchange during FFTs selected (reduces bandwidth)


 FFT grid for exact exchange (Hartree Fock) 
  NGX = 70; NGY = 70; NGZ = 70

 use parallel FFT for orbitals z direction half grid
 
 Radii for the augmentation spheres in the non-local exchange
 for species   1 augmentation radius   0.874 (default was   0.699)
       energy cutoff for augmentation   2800.0
 for species   2 augmentation radius   1.442 (default was   1.153)
       energy cutoff for augmentation   2800.0

 real space projection operators:
  total allocation   :      12639.33 KBytes
  max/ min on nodes  :       1641.24       1456.69

 Maximum index for augmentation-charges in exchange          458
  SETUP_FOCK is finished

 total amount of memory used by VASP MPI-rank0   160860. kBytes
=======================================================================

   base      :      30000. kBytes
   nonl-proj :      12481. kBytes
   fftplans  :      13797. kBytes
   grid      :      32673. kBytes
   one-center:       1327. kBytes
   HF        :         73. kBytes
   nonlr-proj:       1953. kBytes
   wavefun   :      68556. kBytes
 
     INWAV:  cpu time   44.2824: real time   44.5068
 Broyden mixing: mesh for mixing (old mesh)
   NGX = 45   NGY = 45   NGZ = 45
  (NGX  =192   NGY  =192   NGZ  =192)
  gives a total of  91125 points

 charge density for first step will be calculated from the start-wavefunctions


--------------------------------------------------------------------------------------------------------


 Maximum index for augmentation-charges         1362 (set IRDMAX)


--------------------------------------------------------------------------------------------------------


 initial charge from wavefunction
 First call to EWALD:  gamma=   0.167
 Maximum number of real-space cells 3x 3x 3
 Maximum number of reciprocal cells 3x 3x 3

    FEWALD:  cpu time    0.0380: real time    0.0381


--------------------------------------- Iteration      1(   1)  ---------------------------------------


    POTLOK:  cpu time    2.5745: real time    2.5807
    SETDIJ:  cpu time    9.8137: real time    9.8376
    TRIAL :  cpu time 1319.3705: real time 1322.5625
    CORREC:  cpu time 1329.4686: real time 1332.6818
    CHARGE:  cpu time    1.3159: real time    1.3191
    --------------------------------------------
      LOOP:  cpu time 2662.5698: real time 2669.0096

 eigenvalue-minimisations  :     0
 total energy-change (2. order) :-0.2209422E+04  (-0.1143436E-04)
 number of electron     867.9999909 magnetization       0.0000000
 augmentation part       20.1994132 magnetization       1.0696074

 Free energy of the ion-electron system (eV)
  ---------------------------------------------------
  alpha Z        PSCENC =      3287.54862661
  Ewald energy   TEWEN  =    -38584.38627986
  -Hartree energ DENC   =     -2918.10475287
  -exchange      EXHF   =      2008.97281218
  -V(xc)+E(xc)   XCENC  =      2367.13761731
  PAW double counting   =     94307.21379881   -94411.94330254
  entropy T*S    EENTRO =        -0.00000000
  eigenvalues    EBANDS =      -524.95436896
  atomic energy  EATOM  =     32259.09391048
  ---------------------------------------------------
  free energy    TOTEN  =     -2209.42193884 eV

  energy without entropy =    -2209.42193884  energy(sigma->0) =    -2209.42193884
  exchange ACFDT corr.  =         0.00000000  see jH, gK, PRB 81, 115126


--------------------------------------------------------------------------------------------------------




--------------------------------------- Iteration      1(   2)  ---------------------------------------


    POTLOK:  cpu time    2.4875: real time    2.4935
    SETDIJ:  cpu time    9.7104: real time    9.7339
    TRIAL :  cpu time 1287.5947: real time 1290.7040
    CORREC:  cpu time 1262.5557: real time 1265.6028
    CHARGE:  cpu time    1.3006: real time    1.3037
    --------------------------------------------
      LOOP:  cpu time 2563.6643: real time 2569.8619

 eigenvalue-minimisations  :     0
 total energy-change (2. order) :-0.1097353E-04  (-0.2092159E-04)
 number of electron     867.9999909 magnetization       0.0000000
 augmentation part       20.1994465 magnetization       1.0700610

 Free energy of the ion-electron system (eV)
  ---------------------------------------------------
  alpha Z        PSCENC =      3287.54862661
  Ewald energy   TEWEN  =    -38584.38627986
  -Hartree energ DENC   =     -2918.08483503
  -exchange      EXHF   =      2008.97296067
  -V(xc)+E(xc)   XCENC  =      2367.13710191
  PAW double counting   =     94305.61081182   -94410.33989567
  entropy T*S    EENTRO =        -0.00000000
  eigenvalues    EBANDS =      -524.97435074
  atomic energy  EATOM  =     32259.09391048
  ---------------------------------------------------
  free energy    TOTEN  =     -2209.42194982 eV

  energy without entropy =    -2209.42194982  energy(sigma->0) =    -2209.42194982
  exchange ACFDT corr.  =         0.00000000  see jH, gK, PRB 81, 115126


--------------------------------------------------------------------------------------------------------




[...]
 100       0.063    -0.044    -0.019    -0.085    -0.078    -0.124
 101       0.032     0.015    -0.047     0.016     0.008     0.014
 102      -0.015     0.012     0.003     0.001    -0.007    -0.001
 103       0.011    -0.005    -0.006     0.011    -0.005    -0.010
 104       0.122    -0.081    -0.041     0.055     0.063     0.015
 105      -0.016     0.033    -0.016    -0.302    -0.321    -0.302
 106       0.575    -0.240    -0.335    -1.631    -1.884    -2.189
 107      -0.094     0.187    -0.094    -0.000    -0.181     0.000
 108      -0.335    -0.240     0.575    -2.189    -1.884    -1.631
 109      -0.038     0.077    -0.038    -0.103     0.033    -0.103
 110      -0.038     0.077    -0.038     0.103     0.033     0.103
 111       0.012    -0.024     0.012    -0.027    -0.046     0.027
 112       0.575    -0.240    -0.335     1.631    -1.884     2.189
 113       0.039     0.012    -0.051     0.090    -0.120     0.137
 114       0.012    -0.015     0.003    -0.018     0.016     0.053
 115      -0.015     0.012     0.003    -0.001    -0.007     0.001
 116       0.032     0.015    -0.047    -0.016     0.008    -0.014
 117       0.122    -0.081    -0.041    -0.055     0.063    -0.015
 118       0.011    -0.005    -0.006    -0.011    -0.005     0.010
 119       0.017    -0.017    -0.000     0.004     0.002     0.011
 120       0.019    -0.006    -0.013    -0.000    -0.002     0.000
 121       0.095    -0.048    -0.047     0.020     0.026    -0.046
 122       0.011    -0.004    -0.007    -0.011     0.007    -0.005
 123       0.040    -0.017    -0.023    -0.037    -0.065     0.046
 124       0.024    -0.013    -0.012    -0.009     0.006    -0.002
 125       0.008    -0.008     0.000     0.013    -0.009     0.013
 126       0.020     0.016    -0.036    -0.008    -0.020     0.027
 127       0.057    -0.114     0.057    -0.015     0.154    -0.015
 128       0.023     0.055    -0.078    -0.113     0.016     0.010
 129      -0.078     0.055     0.023     0.010     0.016    -0.113
 130      -0.050     0.099    -0.050    -0.466    -0.490    -0.466
 131      -0.050     0.099    -0.050     0.466    -0.490     0.466
 132      -0.032     0.065    -0.032    -0.029    -0.020     0.029
 133      -0.032     0.065    -0.032     0.029    -0.020    -0.029
 134       0.103    -0.207     0.103    -0.975     0.793     0.975
 135       0.023     0.055    -0.078     0.113     0.016    -0.010
 136       0.095    -0.048    -0.047    -0.020     0.026     0.046
 137       0.015    -0.009    -0.006    -0.047     0.047     0.050
 138       0.024    -0.013    -0.012     0.009     0.006     0.002
 139       0.040    -0.017    -0.023     0.037    -0.065    -0.046
 140       0.020     0.016    -0.036     0.008    -0.020    -0.027
 141       0.008    -0.008     0.000    -0.013    -0.009    -0.013
 142       0.002    -0.004     0.003     0.011     0.000     0.002
 143       0.000    -0.000    -0.000     0.003    -0.003     0.004
 144       0.004    -0.007     0.004     0.003    -0.001    -0.003
 145       0.003     0.002    -0.005    -0.002    -0.003     0.006
 146      -0.001    -0.000     0.002    -0.002    -0.002     0.000
 147       0.002    -0.000    -0.001    -0.000    -0.002     0.002
 148      -0.001     0.001    -0.001    -0.000    -0.001     0.000
 149      -0.003     0.006    -0.003     0.002    -0.010    -0.002
 150      -0.004     0.008    -0.004    -0.014    -0.006     0.014
 151      -0.005     0.002     0.003    -0.006    -0.003     0.002
 152      -0.026     0.008     0.018     0.011     0.009     0.006
 153      -0.018     0.017     0.001    -0.003    -0.020    -0.003
 154      -0.010     0.002     0.008     0.003     0.007     0.011
 155      -0.006     0.004     0.002    -0.001    -0.001     0.003
 156      -0.011     0.006     0.004    -0.033     0.031     0.022
 157       0.005     0.008    -0.013    -0.003     0.021     0.015
 158      -0.002     0.004    -0.002     0.004     0.003     0.004
 159       0.003    -0.001    -0.002     0.022    -0.015     0.028
 160       0.001    -0.003     0.001     0.004     0.002     0.004
 161      -0.002    -0.001     0.003     0.028    -0.015     0.022
 162       0.000    -0.000     0.000     0.001     0.000     0.001
 163      -0.000     0.000    -0.000     0.004     0.003     0.004
 164      -0.002     0.002    -0.001     0.002     0.000     0.001
 165      -0.001     0.002    -0.002     0.001     0.000     0.002
 166      -0.001     0.005    -0.004     0.004    -0.001     0.005
 167       0.006    -0.006     0.000     0.003    -0.006     0.003
 168      -0.003     0.005    -0.003     0.001     0.000    -0.001
 169       0.012    -0.015     0.003     0.018     0.016    -0.053
 170      -0.005     0.006    -0.001     0.005    -0.000    -0.003
 171      -0.001     0.006    -0.005     0.003    -0.000    -0.005
 172       0.006    -0.013     0.006    -0.008    -0.007     0.008
 173       0.004    -0.008     0.004     0.008    -0.023    -0.008
 174       0.012    -0.024     0.012     0.027    -0.046    -0.027
 175       0.003    -0.015     0.012     0.053     0.016    -0.018
 176      -0.051     0.012     0.039     0.137    -0.120     0.090
 177      -0.335    -0.240     0.575     2.189    -1.884     1.631
 178       0.003     0.012    -0.015     0.001    -0.007    -0.001
 179      -0.047     0.015     0.032    -0.014     0.008    -0.016
 180      -0.006    -0.005     0.011     0.010    -0.005    -0.011
 181      -0.041    -0.081     0.122    -0.015     0.063    -0.055
 182      -0.016     0.033    -0.016     0.302    -0.321     0.302
 183      -0.019    -0.044     0.063     0.124    -0.078     0.085
 184      -0.003     0.006    -0.003     0.010    -0.013     0.010
 185       0.063    -0.044    -0.019     0.085    -0.078     0.124
 186      -0.001     0.003    -0.001    -0.000    -0.001    -0.000
 187      -0.008     0.016    -0.008    -0.008     0.000    -0.008
 188      -0.005    -0.000     0.005    -0.023    -0.014    -0.023
 189       0.005    -0.000    -0.005    -0.023    -0.014    -0.023
 190       0.017    -0.017    -0.000    -0.004     0.002    -0.011
 191       0.005    -0.007     0.003     0.005     0.005    -0.003
 192       0.021    -0.043     0.021     0.055     0.030    -0.055
 193       0.015    -0.009    -0.006     0.047     0.047    -0.050
 194       0.003    -0.006     0.003     0.000    -0.000    -0.002
 195       0.003    -0.006     0.003     0.002    -0.000    -0.000
 196       0.002    -0.005     0.002     0.000     0.000    -0.000
 197       0.003    -0.007     0.003    -0.005    -0.012     0.005
 198       0.103    -0.207     0.103     0.975     0.793    -0.975
 199      -0.006    -0.009     0.015     0.050     0.047    -0.047
 200      -0.047    -0.048     0.095     0.046     0.026    -0.020
 201      -0.078     0.055     0.023    -0.010     0.016     0.113
 202      -0.012    -0.013     0.024     0.002     0.006     0.009
 203      -0.023    -0.017     0.040    -0.046    -0.065     0.037
 204       0.000    -0.008     0.008    -0.013    -0.009    -0.013
 205      -0.036     0.016     0.020    -0.027    -0.020     0.008
 206       0.057    -0.114     0.057     0.015     0.154     0.015
 207      -0.007    -0.004     0.011     0.005     0.007     0.011
 208       0.005    -0.010     0.005     0.002    -0.001     0.002
 209       0.011    -0.004    -0.007     0.011     0.007     0.005
 210       0.002    -0.004     0.002     0.001     0.003     0.001
 211       0.010    -0.021     0.010     0.005     0.018     0.005
 212       0.000    -0.005     0.005     0.003     0.002     0.003
 213       0.005    -0.005     0.000     0.003     0.002     0.003
 214       0.182    -0.364     0.182     0.000   -27.839     0.000
 ---------------------------------------------------------------------


 Total hyperfine coupling parameters after diagonalization (MHz)
 (convention: |A_zz| > |A_xx| > |A_yy|)
 ----------------------------------------------------------------------
  ion      A_xx      A_yy      A_zz     asymmetry (A_yy - A_xx)/ A_zz 
 ----------------------------------------------------------------------
   1      -0.013    -0.012    -0.022      -0.061
   2      -0.004    -0.003    -0.013      -0.078
   3       0.004    -0.003    -0.008       0.858
   4      -0.004    -0.003    -0.013      -0.079
   5       0.009     0.007     0.019      -0.093
   6       0.005     0.003     0.006      -0.269
   7      -0.002     0.000     0.004       0.526
   8      -0.002     0.000     0.004       0.526
   9      -0.088    -0.079    -0.103      -0.079
  10      -0.176    -0.164    -0.236      -0.051
  11      -0.128    -0.109    -0.163      -0.115
  12      -0.206    -0.195    -0.260      -0.043
  13      -0.006     0.001    -0.012      -0.519
  14      -0.098    -0.074    -0.104      -0.237
  15       0.189     0.148     0.202      -0.204
  16      -0.398    -0.391    -0.482      -0.014
  17      -0.088    -0.079    -0.103      -0.079
  18      -0.048    -0.041    -0.057      -0.119
  19      -0.006     0.005     0.007       1.542
  20      -0.004    -0.003    -0.013      -0.078
  21       0.010     0.006     0.013      -0.302
  22       0.010     0.006     0.013      -0.302
  23       0.060     0.044     0.067      -0.241
  24       0.002     0.000     0.003      -0.634
  25      -0.002     0.001    -0.006      -0.521
  26      -0.136    -0.125    -0.144      -0.075
  27      -0.035    -0.031    -0.067      -0.050
  28      -0.136    -0.125    -0.144      -0.075
  29       0.010     0.006     0.039      -0.098
  30      -0.031    -0.027    -0.032      -0.099
  31      -0.134    -0.121    -0.188      -0.070
  32      -0.134    -0.121    -0.188      -0.070
  33      -0.076    -0.067    -0.082      -0.107
  34      -0.966    -0.947    -1.265      -0.015
  35      -1.047    -1.038    -1.403      -0.006
  36      -0.108    -0.070    -0.108      -0.355
  37       0.706     0.649     0.742      -0.076
  38      -0.044    -0.038    -0.067      -0.097
  39       0.774     0.742     0.994      -0.033
  40       0.059     0.046     0.082      -0.157
  41      -0.076    -0.067    -0.082      -0.107
  42      -0.466    -0.438    -0.552      -0.051
  43      -0.023    -0.015    -0.023      -0.350
  44      -0.136    -0.125    -0.144      -0.075
  45       0.044     0.039     0.054      -0.093
  46       0.044     0.039     0.054      -0.093
  47       0.461     0.453     0.502      -0.016
  48      -0.017    -0.001     0.017       0.931
  49      -0.241    -0.233    -0.260      -0.031
  50      -0.016    -0.010    -0.029      -0.226
  51      -0.123    -0.122    -0.139      -0.013
  52      -0.016    -0.010    -0.029      -0.226
  53      -0.043    -0.006    -0.057      -0.648
  54       0.014     0.011     0.020      -0.135
  55       0.013     0.007     0.020      -0.305
  56       0.013     0.007     0.020      -0.305
  57      -0.064    -0.050    -0.091      -0.152
  58      -0.081    -0.052    -0.084      -0.345
  59      -0.269    -0.167    -0.367      -0.277
  60       0.011     0.004     0.036      -0.199
  61      -0.136     0.004    -0.177      -0.789
  62       0.024     0.022     0.064      -0.040
  63      -0.487    -0.457    -0.548      -0.056
  64      -0.173    -0.167    -0.207      -0.030
  65      -0.064    -0.050    -0.091      -0.152
  66      -0.471    -0.459    -0.610      -0.019
  67      -0.596    -0.592    -0.752      -0.005
  68      -0.016    -0.010    -0.029      -0.226
  69       0.023     0.014     0.025      -0.367
  70       0.023     0.014     0.025      -0.367
  71       0.017     0.016     0.042      -0.021
  72       0.005    -0.002     0.005      -1.211
  73      -0.088    -0.079    -0.103      -0.079
  74      -0.206    -0.195    -0.260      -0.043
  75      -0.128    -0.109    -0.163      -0.115
  76      -0.176    -0.164    -0.236      -0.051
  77      -0.005     0.001    -0.012      -0.519
  78      -0.098    -0.074    -0.104      -0.237
  79      -0.398    -0.391    -0.482      -0.014
  80       0.189     0.148     0.202      -0.204
  81      -0.199    -0.186    -0.201      -0.063
  82      -0.068    -0.064    -0.112      -0.032
  83      -0.045    -0.004    -0.080      -0.505
  84      -0.068    -0.064    -0.112      -0.032
  85      -0.038    -0.017    -0.053      -0.397
  86      -0.038    -0.017    -0.053      -0.397
  87       0.193     0.162     0.249      -0.125
  88       0.193     0.162     0.249      -0.125
  89       0.004    -0.000     0.039      -0.112
  90      -0.068    -0.064    -0.112      -0.032
  91      -0.128    -0.109    -0.163      -0.115
  92      -0.048    -0.041    -0.057      -0.119
  93      -0.098    -0.074    -0.104      -0.237
  94      -0.005     0.001    -0.012      -0.519
  95       0.189     0.148     0.202      -0.204
  96      -0.398    -0.391    -0.482      -0.014
  97      -0.076    -0.067    -0.082      -0.107
  98      -0.108    -0.070    -0.108      -0.355
  99      -1.047    -1.038    -1.403      -0.006
 100      -0.966    -0.947    -1.265      -0.015
 101       0.706     0.649     0.742      -0.076
 102      -0.044    -0.038    -0.067      -0.097
 103       0.059     0.046     0.082      -0.157
 104       0.774     0.742     0.994      -0.033
 105      -3.015    -3.007    -3.937      -0.002
 106      -8.947    -8.675   -14.616      -0.019
 107      -0.832    -0.732    -1.194      -0.084
 108      -8.948    -8.675   -14.616      -0.019
 109       1.244     1.199     1.501      -0.030
 110       1.244     1.199     1.501      -0.030
 111      -0.461    -0.355    -0.466      -0.227
 112      -8.948    -8.675   -14.617      -0.019
 113      -1.047    -1.038    -1.403      -0.006
 114      -0.466    -0.438    -0.552      -0.051
 115      -0.044    -0.038    -0.067      -0.097
 116       0.706     0.649     0.742      -0.076
 117       0.774     0.742     0.994      -0.033
 118       0.059     0.046     0.082      -0.157
 119      -0.064    -0.050    -0.091      -0.152
 120       0.011     0.004     0.036      -0.199
 121      -0.269    -0.167    -0.367      -0.277
 122      -0.081    -0.052    -0.084      -0.345
 123      -0.136     0.004    -0.177      -0.789
 124       0.024     0.022     0.064      -0.040
 125      -0.173    -0.167    -0.207      -0.030
 126      -0.487    -0.457    -0.548      -0.056
 127      -1.363    -1.054    -1.381      -0.224
 128       0.165     0.128     0.376      -0.099
 129       0.165     0.128     0.376      -0.099
 130      -4.438    -4.368    -5.831      -0.012
 131      -4.438    -4.368    -5.831      -0.012
 132      -0.072     0.039    -0.096      -1.167
 133      -0.072     0.039    -0.096      -1.167
 134      -8.402    -8.347   -11.147      -0.005
 135       0.165     0.127     0.376      -0.099
 136      -0.269    -0.167    -0.367      -0.277
 137      -0.471    -0.459    -0.610      -0.019
 138       0.024     0.022     0.064      -0.040
 139      -0.136     0.004    -0.177      -0.789
 140      -0.487    -0.457    -0.548      -0.056
 141      -0.173    -0.167    -0.207      -0.030
 142      -0.088    -0.079    -0.103      -0.079
 143      -0.004    -0.003    -0.013      -0.079
 144      -0.006     0.005     0.007       1.543
 145      -0.048    -0.041    -0.057      -0.119
 146       0.010     0.006     0.013      -0.302
 147       0.010     0.006     0.012      -0.302
 148       0.002     0.000     0.003      -0.637
 149       0.060     0.044     0.067      -0.241
 150       0.004    -0.000     0.039      -0.112
 151      -0.048    -0.041    -0.057      -0.119
 152      -0.128    -0.109    -0.163      -0.115
 153      -0.068    -0.064    -0.112      -0.032
 154      -0.098    -0.074    -0.104      -0.237
 155      -0.005     0.001    -0.012      -0.519
 156      -0.398    -0.391    -0.482      -0.014
 157       0.189     0.148     0.202      -0.204
 158      -0.199    -0.186    -0.201      -0.063
 159      -0.176    -0.164    -0.236      -0.051
 160       0.004    -0.003    -0.008       0.857
 161      -0.176    -0.164    -0.236      -0.051
 162       0.005     0.003     0.006      -0.269
 163       0.009     0.007     0.019      -0.093
 164      -0.002     0.000     0.004       0.527
 165      -0.002     0.000     0.004       0.526
 166      -0.076    -0.067    -0.082      -0.107
 167      -0.136    -0.125    -0.144      -0.075
 168      -0.023    -0.015    -0.023      -0.350
 169      -0.466    -0.438    -0.552      -0.051
 170       0.044     0.039     0.054      -0.093
 171       0.044     0.039     0.054      -0.093
 172      -0.017    -0.001     0.017       0.931
 173       0.461     0.453     0.502      -0.016
 174      -0.461    -0.355    -0.466      -0.227
 175      -0.466    -0.438    -0.552      -0.051
 176      -1.047    -1.038    -1.403      -0.006
 177      -8.948    -8.675   -14.616      -0.019
 178      -0.044    -0.038    -0.067      -0.097
 179       0.706     0.649     0.742      -0.076
 180       0.059     0.046     0.082      -0.157
 181       0.774     0.742     0.994      -0.033
 182      -3.015    -3.007    -3.937      -0.002
 183      -0.966    -0.947    -1.265      -0.015
 184      -0.035    -0.031    -0.067      -0.050
 185      -0.966    -0.947    -1.265      -0.015
 186      -0.031    -0.027    -0.032      -0.099
 187       0.010     0.006     0.039      -0.098
 188      -0.134    -0.121    -0.188      -0.070
 189      -0.134    -0.121    -0.188      -0.070
 190      -0.064    -0.050    -0.091      -0.152
 191      -0.016    -0.010    -0.029      -0.226
 192      -0.596    -0.592    -0.752      -0.005
 193      -0.471    -0.459    -0.610      -0.019
 194       0.023     0.014     0.025      -0.367
 195       0.023     0.014     0.025      -0.367
 196       0.005    -0.002     0.005      -1.212
 197       0.017     0.016     0.042      -0.021
 198      -8.402    -8.347   -11.147      -0.005
 199      -0.471    -0.459    -0.610      -0.019
 200      -0.269    -0.167    -0.367      -0.277
 201       0.165     0.127     0.376      -0.099
 202       0.024     0.022     0.064      -0.040
 203      -0.136     0.004    -0.177      -0.789
 204      -0.173    -0.167    -0.207      -0.030
 205      -0.487    -0.457    -0.548      -0.056
 206      -1.363    -1.054    -1.381      -0.224
 207      -0.081    -0.052    -0.084      -0.345
 208      -0.123    -0.122    -0.139      -0.013
 209      -0.081    -0.052    -0.084      -0.345
 210       0.014     0.011     0.020      -0.135
 211      -0.043    -0.006    -0.057      -0.649
 212       0.013     0.007     0.020      -0.305
 213       0.013     0.007     0.020      -0.305
 214     179.420   152.127   207.805      -0.131
 ---------------------------------------------------------------------



--------------------------------------------------------------------------------------------------------


 writing wavefunctions
     LOOP+:  cpu time40925.2749: real time41067.2799
    4ORBIT:  cpu time    0.0000: real time    0.0000

 total amount of memory used by VASP MPI-rank0   257916. kBytes
=======================================================================

   base      :      30000. kBytes
   nonl-proj :      12481. kBytes
   fftplans  :      13797. kBytes
   grid      :      32673. kBytes
   one-center:       1327. kBytes
   HF        :         73. kBytes
   nonlr-proj:       1953. kBytes
   wavefun   :      68556. kBytes
   fock_wrk  :      97056. kBytes
 
  
  
 General timing and accounting informations for this job:
 ========================================================
  
                  Total CPU time used (sec):    41031.820
                            User time (sec):    40953.722
                          System time (sec):       78.097
                         Elapsed time (sec):    41175.472
  
                   Maximum memory used (kb):      812096.
                   Average memory used (kb):          N/A
  
                          Minor page faults:     53240851
                          Major page faults:            0
                 Voluntary context switches:        14237
