 vasp.6.2.1 16May21 (build Sep 27 2021 21:11:04) gamma-only                     
  
 executed on             LinuxIFC date 2023.05.09  18:57:16
 running   24 mpi-ranks, with    1 threads/rank
 distrk:  each k-point on   24 cores,    1 groups
 distr:  one band on NCORE=   8 cores,    3 groups


--------------------------------------------------------------------------------------------------------


 INCAR:
   GGA = PE
   ISTART = 1
   ISPIN = 2
   ENCUT = 700
   ENAUG = 1400
   EDIFF = 1E-6
   IBRION = 2
   POTIM = 0.2
   ALGO = All
   NSW = 0
   EDIFFG = -1E-2
   ISMEAR = 0
   SIGMA = 0.01
   ISIF = 1
   LREAL = .FALSE.
   ISYM = 0
   NELECT = 866
   PREC = Accurate
   LEFG = .TRUE.
   LHYPERFINE = .TRUE.
   LHFCALC = .TRUE.
   HFSCREEN = 0.2
   NCORE = 8
   NELM = 60
   NWRITE = 2
   SYMPREC = 1.0e-8

 POTCAR:    PAW_PBE C 08Apr2002                   
 POTCAR:    PAW_PBE Pr 23Dec2003                  
 -----------------------------------------------------------------------------
|                                                                             |
|           W    W    AA    RRRRR   N    N  II  N    N   GGGG   !!!           |
|           W    W   A  A   R    R  NN   N  II  NN   N  G    G  !!!           |
|           W    W  A    A  R    R  N N  N  II  N N  N  G       !!!           |
|           W WW W  AAAAAA  RRRRR   N  N N  II  N  N N  G  GGG   !            |
|           WW  WW  A    A  R   R   N   NN  II  N   NN  G    G                |
|           W    W  A    A  R    R  N    N  II  N    N   GGGG   !!!           |
|                                                                             |
|     You use a magnetic or noncollinear calculation, but did not specify     |
|     the initial magnetic moment with the MAGMOM tag. Note that a            |
|     default of 1 will be used for all atoms. This ferromagnetic setup       |
|     may break the symmetry of the crystal, in particular it may rule        |
|     out finding an antiferromagnetic solution. Thence, we recommend         |
|     setting the initial magnetic moment manually or verifying carefully     |
|     that this magnetic setup is desired.                                    |
|                                                                             |
 -----------------------------------------------------------------------------

 POTCAR:    PAW_PBE C 08Apr2002                   
   SHA256 =  253f7b50bb8d59471dbedb8285d89021f4a42ed1a2c5d38a03a736e69125dd95 C/POTCAR              
   COPYR  = (c) Copyright 08Apr2002 Georg Kresse                                                    
   COPYR  = This file is part of the software VASP. Any use, copying, and all other rights are regul
   COPYR  = If you do not have a valid VASP license, you may not use, copy or distribute this file. 
   VRHFIN =C: s2p2                                                                                  
   LEXCH  = PE                                                                                      
   EATOM  =   147.1560 eV,   10.8157 Ry                                                             
                                                                                                    
   TITEL  = PAW_PBE C 08Apr2002                                                                     
   LULTRA =        F    use ultrasoft PP ?                                                          
   IUNSCR =        1    unscreen: 0-lin 1-nonlin 2-no                                               
   RPACOR =    1.200    partial core radius                                                         
   POMASS =   12.011; ZVAL   =    4.000    mass and valenz                                          
   RCORE  =    1.500    outmost cutoff radius                                                       
   RWIGS  =    1.630; RWIGS  =    0.863    wigner-seitz radius (au A)                               
   ENMAX  =  400.000; ENMIN  =  300.000 eV                                                          
   ICORE  =        2    local potential                                                             
   LCOR   =        T    correct aug charges                                                         
   LPAW   =        T    paw PP                                                                      
   EAUG   =  644.873                                                                                
   DEXC   =    0.000                                                                                
   RMAX   =    1.529    core radius for proj-oper                                                   
   RAUG   =    1.300    factor for augmentation sphere                                              
   RDEP   =    1.501    radius for radial grids                                                     
   RDEPT  =    1.300    core radius for aug-charge                                                  
                                                                                                    
   Atomic configuration                                                                             
    4 entries                                                                                       
     n  l   j            E        occ.                                                              
     1  0  0.50      -273.3789   2.0000                                                             
     2  0  0.50       -13.7508   2.0000                                                             
     2  1  0.50        -5.2854   2.0000                                                             
     3  2  1.50        -5.4423   0.0000                                                             
   Description                                                                                      
     l       E           TYP  RCUT    TYP  RCUT                                                     
     0    -13.7508458     23  1.200                                                                 
     0     -8.2022199     23  1.200                                                                 
     1     -5.2854383     23  1.500                                                                 
     1     34.0145650     23  1.500                                                                 
     2     -5.4423304      7  1.500                                                                 
  local pseudopotential read in
  partial core-charges read in
  partial kinetic energy density read in
  atomic valenz-charges read in
  non local Contribution for L=           0  read in
    real space projection operators read in
  non local Contribution for L=           0  read in
    real space projection operators read in
  non local Contribution for L=           1  read in
    real space projection operators read in
  non local Contribution for L=           1  read in
    real space projection operators read in
    PAW grid and wavefunctions read in
 
   number of l-projection  operators is LMAX  =           4
   number of lm-projection operators is LMMAX =           8
 
 POTCAR:    PAW_PBE Pr 23Dec2003                  
   SHA256 =  ebcd8a6c43bbf830c2eab3f7188f0d0e53e8e155a05b1bfc11640602897f077e Pr/POTCAR             
   COPYR  = (c) Copyright 23Dec2003 Georg Kresse                                                    
   COPYR  = This file is part of the software VASP. Any use, copying, and all other rights are regul
   COPYR  = If you do not have a valid VASP license, you may not use, copy or distribute this file. 
   VRHFIN =Pr : [core=Xe4]                                                                          
   LEXCH  = PE                                                                                      
   EATOM  =  1294.6665 eV,   95.1553 Ry                                                             
                                                                                                    
   TITEL  = PAW_PBE Pr 23Dec2003                                                                    
   LULTRA =        F    use ultrasoft PP ?                                                          
   IUNSCR =        1    unscreen: 0-lin 1-nonlin 2-no                                               
   RPACOR =    2.300    partial core radius                                                         
   POMASS =  140.907; ZVAL   =   13.000    mass and valenz                                          
   RCORE  =    2.700    outmost cutoff radius                                                       
   RWIGS  =    2.800; RWIGS  =    1.482    wigner-seitz radius (au A)                               
   ENMAX  =  272.941; ENMIN  =  204.706 eV                                                          
   RCLOC  =    1.903    cutoff for local pot                                                        
   LCOR   =        T    correct aug charges                                                         
   LPAW   =        T    paw PP                                                                      
   EAUG   =  578.020                                                                                
   DEXC   =    0.000                                                                                
   RMAX   =    2.755    core radius for proj-oper                                                   
   RAUG   =    1.300    factor for augmentation sphere                                              
   RDEP   =    2.816    radius for radial grids                                                     
   RDEPT  =    2.166    core radius for aug-charge                                                  
                                                                                                    
   Atomic configuration                                                                             
   14 entries                                                                                       
     n  l   j            E        occ.                                                              
     1  0  0.50    -41810.3934   2.0000                                                             
     2  0  0.50     -6731.1418   2.0000                                                             
     2  1  1.50     -6022.4876   6.0000                                                             
     3  0  0.50     -1458.2043   2.0000                                                             
     3  1  1.50     -1233.8862   6.0000                                                             
     3  2  2.50      -919.2566  10.0000                                                             
     4  0  0.50      -295.2681   2.0000                                                             
     4  1  1.50      -221.8430   6.0000                                                             
     4  2  2.50      -116.8418  10.0000                                                             
     5  0  0.50       -42.1589   2.0000                                                             
     6  0  0.50        -3.8068   2.0000                                                             
     5  1  1.50       -23.9655   6.0000                                                             
     5  2  2.50        -3.0008   1.0000                                                             
     4  3  2.50        -6.2311   2.0000                                                             
   Description                                                                                      
     l       E           TYP  RCUT    TYP  RCUT                                                     
     0    -42.1589404     23  1.550                                                                 
     0     -3.8068341     23  2.300                                                                 
     1    -23.9655292     23  2.400                                                                 
     1     27.2116520     23  2.400                                                                 
     2     -3.0008130     23  2.500                                                                 
     2     13.6058260     23  2.500                                                                 
     3     -6.2311419     23  2.700                                                                 
     3     -6.8029130     23  2.700                                                                 
  local pseudopotential read in
  partial core-charges read in
  partial kinetic energy density read in
  atomic valenz-charges read in
  non local Contribution for L=           0  read in
    real space projection operators read in
  non local Contribution for L=           0  read in
    real space projection operators read in
  non local Contribution for L=           1  read in
    real space projection operators read in
  non local Contribution for L=           1  read in
    real space projection operators read in
  non local Contribution for L=           2  read in
    real space projection operators read in
  non local Contribution for L=           2  read in
    real space projection operators read in
  non local Contribution for L=           3  read in
    real space projection operators read in
  non local Contribution for L=           3  read in
    real space projection operators read in
    PAW grid and wavefunctions read in
 
   number of l-projection  operators is LMAX  =           8
   number of lm-projection operators is LMMAX =          32
 
 -----------------------------------------------------------------------------
|                                                                             |
|               ----> ADVICE to this user running VASP <----                  |
|                                                                             |
|     You have a (more or less) 'large supercell' and for larger cells it     |
|     might be more efficient to use real-space projection operators.         |
|     Therefore, try LREAL= Auto in the INCAR file.                           |
|     Mind: For very accurate calculation, you might also keep the            |
|     reciprocal projection scheme (i.e. LREAL=.FALSE.).                      |
|                                                                             |
 -----------------------------------------------------------------------------

  PAW_PBE C 08Apr2002                   :
 energy of atom  1       EATOM= -147.1560
 kinetic energy error for atom=    0.0032 (will be added to EATOM!!)
  PAW_PBE Pr 23Dec2003                  :
 energy of atom  2       EATOM=-1294.6665
 kinetic energy error for atom=    0.0051 (will be added to EATOM!!)
 
 
 POSCAR: prv2
  positions in direct lattice
  velocities in cartesian coordinates
 exchange correlation table for  LEXCH =        8
   RHO(1)=    0.500       N(1)  =     2000
   RHO(2)=  100.500       N(2)  =     4000
 


--------------------------------------------------------------------------------------------------------


 ion  position               nearest neighbor table
   1  0.000  0.000  1.000- 162 1.53   6 1.53 196 1.54  72 1.54
   2  1.000  0.167  0.167-   7 1.53  24 1.53  21 1.53   6 1.54
   3  0.166  0.000  0.166-   5 1.53   6 1.53  56 1.54  55 1.54
   4  0.167  0.167  1.000-   8 1.53 148 1.53 146 1.53   6 1.54
   5  0.249  0.084  0.249-  81 1.53   3 1.53  10 1.53  76 1.53
   6  0.083  0.084  0.083-   1 1.53   3 1.53   4 1.54   2 1.54
   7  0.083  0.250  0.250-   2 1.53  76 1.53  27 1.54  97 1.54
   8  0.250  0.250  0.083-   4 1.53  10 1.53  27 1.54  33 1.54
   9  0.333  0.000  1.000- 204 1.53  14 1.53 146 1.53  56 1.53
  10  0.333  0.166  0.166-  15 1.53  14 1.53   8 1.53   5 1.53
  11  0.500  0.001  0.166-  63 1.52  14 1.53  64 1.53  13 1.54
  12  0.500  0.167  1.000-  14 1.53 154 1.53  16 1.53 156 1.53
  13  0.583  0.084  0.250-  84 1.53  18 1.53  11 1.54  89 1.54
  14  0.417  0.084  0.082-  11 1.53  12 1.53  10 1.53   9 1.53
  15  0.416  0.249  0.249-  10 1.53 105 1.53  35 1.54  84 1.54
  16  0.583  0.250  0.083-  35 1.52  12 1.53  41 1.53  18 1.53
  17  0.667  0.000  0.000-  64 1.53 154 1.53  22 1.53 212 1.53
  18  0.667  0.167  0.167-  13 1.53  22 1.53  16 1.53  23 1.54
  19  0.833  0.000  0.167-  21 1.53  22 1.53  72 1.53  71 1.54
  20  0.833  0.167  0.000- 164 1.53  24 1.53  22 1.53 162 1.54
  21  0.916  0.084  0.250-  19 1.53  73 1.53  92 1.53   2 1.53
  22  0.750  0.084  0.084-  19 1.53  17 1.53  18 1.53  20 1.53
  23  0.750  0.250  0.250-  43 1.53 111 1.53  92 1.54  18 1.54
  24  0.917  0.250  0.083-  20 1.53   2 1.53  25 1.54  43 1.54
  25  0.000  0.334  1.000-  30 1.53 186 1.53  24 1.54 148 1.54
  26  0.999  0.500  0.166-  31 1.53  48 1.53  45 1.54  30 1.54
  27  0.166  0.333  0.166-  29 1.53  30 1.53   7 1.54   8 1.54
  28  0.166  0.500  0.999-  32 1.53 172 1.53 170 1.54  30 1.54
  29  0.249  0.417  0.249-  27 1.53  34 1.54 100 1.54 105 1.54
  30  0.083  0.417  0.083-  25 1.53  27 1.53  28 1.54  26 1.54
  31  0.082  0.584  0.249- 100 1.53  26 1.53 119 1.54  51 1.54
  32  0.249  0.584  0.082-  34 1.53  28 1.53  57 1.54  51 1.54
  33  0.333  0.334  0.999-  38 1.53 156 1.53   8 1.54 170 1.54
  34  0.331  0.500  0.165-  32 1.53  39 1.53  29 1.54  38 1.54
  35  0.500  0.332  0.165-  16 1.52  15 1.54  38 1.54  37 1.54
  36  0.500  0.500  1.000- 178 1.53  38 1.53 180 1.54  40 1.54
  37  0.583  0.416  0.250- 108 1.48  42 1.53 111 1.54  35 1.54
  38  0.416  0.417  0.083-  33 1.53  36 1.53  34 1.54  35 1.54
  39  0.415  0.583  0.248- 108 1.51  34 1.53  59 1.54 127 1.56
  40  0.583  0.584  0.084-  59 1.53  42 1.53  65 1.54  36 1.54
  41  0.667  0.334  0.001- 178 1.53  16 1.53 164 1.54  46 1.54
  42  0.666  0.501  0.168-  40 1.53  37 1.53  47 1.54  46 1.54
  43  0.833  0.334  0.167-  45 1.53  46 1.53  23 1.53  24 1.54
  44  0.834  0.500  0.001- 188 1.53  48 1.53  46 1.54 186 1.54
  45  0.916  0.417  0.250-  43 1.53  97 1.54  26 1.54 114 1.54
  46  0.750  0.417  0.084-  43 1.53  41 1.54  44 1.54  42 1.54
  47  0.748  0.585  0.252- 134 1.51  42 1.54 114 1.54  67 1.55
  48  0.916  0.584  0.084-  44 1.53  26 1.53  67 1.54  49 1.54
  49  0.000  0.667  1.000-  54 1.53 210 1.53  48 1.54 172 1.54
  50  1.000  0.834  0.167-  72 1.53  55 1.53  54 1.54  69 1.54
  51  0.165  0.667  0.165-  53 1.52  54 1.52  31 1.54  32 1.54
  52  0.167  0.834  1.000- 196 1.53  56 1.53  54 1.54 194 1.54
  53  0.248  0.751  0.248- 127 1.52  51 1.52 122 1.54  58 1.54
  54  0.083  0.750  0.083-  51 1.52  49 1.53  50 1.54  52 1.54
  55  0.083  0.917  0.250- 122 1.53  50 1.53  73 1.53   3 1.54
  56  0.250  0.917  0.083-  58 1.53  52 1.53   9 1.53   3 1.54
  57  0.333  0.667  0.999- 194 1.53 180 1.54  32 1.54  62 1.54
  58  0.333  0.834  0.166-  56 1.53  62 1.54  53 1.54  63 1.54
  59  0.500  0.667  0.167-  40 1.53  39 1.54  62 1.54  61 1.54
  60  0.500  0.834  1.000-  64 1.54 204 1.54  62 1.54 202 1.54
  61  0.583  0.750  0.251- 134 1.51  59 1.54 129 1.54  66 1.54
  62  0.417  0.750  0.083-  60 1.54  58 1.54  57 1.54  59 1.54
  63  0.417  0.919  0.248-  11 1.52 129 1.53  81 1.54  58 1.54
  64  0.583  0.917  0.083-  17 1.53  66 1.53  11 1.53  60 1.54
  65  0.667  0.667  0.001-  70 1.53  40 1.54 188 1.54 202 1.54
  66  0.666  0.834  0.167-  64 1.53  70 1.54  71 1.54  61 1.54
  67  0.833  0.667  0.167-  69 1.53  70 1.53  48 1.54  47 1.55
  68  0.833  0.834  0.000-  72 1.53 212 1.53 210 1.54  70 1.54
  69  0.916  0.750  0.250- 119 1.53  67 1.53 137 1.54  50 1.54
  70  0.750  0.750  0.084-  65 1.53  67 1.53  66 1.54  68 1.54
  71  0.750  0.917  0.250-  89 1.53  19 1.54  66 1.54 137 1.54
  72  0.916  0.917  0.084-  50 1.53  68 1.53  19 1.53   1 1.54
  73  1.000  0.000  0.333- 141 1.53  78 1.53  21 1.53  55 1.53
  74  0.000  0.167  0.500-  93 1.53  78 1.53  96 1.53  79 1.53
  75  0.166  0.001  0.500- 126 1.52  78 1.53 125 1.53  77 1.54
  76  0.166  0.166  0.333-  80 1.53  78 1.53   7 1.53   5 1.53
  77  0.250  0.084  0.583-  82 1.53 145 1.53  75 1.54 150 1.54
  78  0.082  0.084  0.417-  75 1.53  74 1.53  76 1.53  73 1.53
  79  0.083  0.250  0.583-  99 1.52  74 1.53 166 1.53 145 1.53
  80  0.249  0.249  0.416-  76 1.53 105 1.53  99 1.54  82 1.54
  81  0.333  0.001  0.333-   5 1.53  86 1.54  63 1.54 126 1.54
  82  0.333  0.167  0.500-  77 1.53  86 1.53  80 1.54  87 1.54
  83  0.500  0.001  0.500- 132 1.53 133 1.53  86 1.54  85 1.54
  84  0.500  0.167  0.333-  13 1.53  86 1.53  15 1.54  88 1.54
  85  0.584  0.084  0.584- 153 1.53  90 1.53 158 1.54  83 1.54
  86  0.416  0.084  0.416-  82 1.53  84 1.53  81 1.54  83 1.54
  87  0.417  0.250  0.583- 107 1.53 174 1.53  82 1.54 153 1.54
  88  0.583  0.250  0.417- 107 1.53 111 1.53  90 1.54  84 1.54
  89  0.667  0.000  0.333- 133 1.53  71 1.53  13 1.54  94 1.54
  90  0.667  0.167  0.500-  94 1.53  85 1.53  95 1.54  88 1.54
  91  0.834  0.001  0.500- 140 1.52  93 1.53 141 1.53  94 1.54
  92  0.833  0.167  0.333-  94 1.53  21 1.53  96 1.53  23 1.54
  93  0.918  0.084  0.583-  91 1.53  74 1.53 161 1.53 142 1.53
  94  0.750  0.084  0.417-  90 1.53  92 1.53  91 1.54  89 1.54
  95  0.751  0.249  0.584- 161 1.53 182 1.53 113 1.54  90 1.54
  96  0.917  0.250  0.417- 113 1.52  74 1.53  97 1.53  92 1.53
  97  0.999  0.334  0.333- 102 1.53  96 1.53   7 1.54  45 1.54
  98  0.000  0.500  0.500- 102 1.53 115 1.53 103 1.54 118 1.54
  99  0.165  0.332  0.500-  79 1.52  80 1.54 102 1.54 101 1.54
 100  0.165  0.500  0.331-  31 1.53 104 1.53  29 1.54 102 1.54
 101  0.250  0.416  0.583- 106 1.48 169 1.53 174 1.54  99 1.54
 102  0.083  0.417  0.416-  97 1.53  98 1.53 100 1.54  99 1.54
 103  0.084  0.584  0.583- 121 1.53 169 1.53 190 1.54  98 1.54
 104  0.248  0.583  0.415- 106 1.51 100 1.53 121 1.54 127 1.56
 105  0.331  0.330  0.331- 110 1.52  80 1.53  15 1.53  29 1.54
 106  0.325  0.491  0.492- 101 1.48 104 1.51 110 1.52 214 2.24
 107  0.500  0.332  0.500-  87 1.53  88 1.53 110 1.56 109 1.56
 108  0.492  0.491  0.325-  37 1.48  39 1.51 110 1.52 214 2.24
 109  0.587  0.412  0.587- 112 1.52 177 1.52 182 1.52 107 1.56 214 2.46
 110  0.413  0.412  0.413- 108 1.52 106 1.52 105 1.52 107 1.56 214 2.46
 111  0.666  0.334  0.334-  88 1.53  23 1.53 116 1.54  37 1.54
 112  0.675  0.491  0.508- 116 1.48 117 1.51 109 1.52 214 2.24
 113  0.835  0.332  0.500-  96 1.52  95 1.54 115 1.54 116 1.54
 114  0.832  0.501  0.334- 118 1.53 116 1.53  47 1.54  45 1.54
 115  0.917  0.417  0.584- 166 1.53  98 1.53 185 1.54 113 1.54
 116  0.750  0.416  0.417- 112 1.48 114 1.53 111 1.54 113 1.54
 117  0.752  0.583  0.585- 112 1.51 185 1.53 136 1.54 206 1.56
 118  0.916  0.584  0.417- 136 1.53 114 1.53 119 1.54  98 1.54
 119  0.999  0.667  0.333-  69 1.53 118 1.54  31 1.54 124 1.54
 120  0.000  0.834  0.500- 141 1.54 125 1.54 138 1.54 124 1.54
 121  0.167  0.667  0.500- 103 1.53 104 1.54 124 1.54 123 1.54
 122  0.166  0.834  0.333-  55 1.53 124 1.54  53 1.54 126 1.54
 123  0.251  0.750  0.583- 198 1.51 121 1.54 128 1.54 193 1.54
 124  0.083  0.750  0.417- 120 1.54 122 1.54 119 1.54 121 1.54
 125  0.083  0.917  0.583- 142 1.53 193 1.53  75 1.53 120 1.54
 126  0.248  0.919  0.417-  75 1.52 128 1.53  81 1.54 122 1.54
 127  0.331  0.669  0.331- 131 1.52  53 1.52 104 1.56  39 1.56 214 2.63
 128  0.332  0.836  0.499- 131 1.49 126 1.53 123 1.54 132 1.54
 129  0.499  0.836  0.332- 131 1.49  63 1.53  61 1.54 133 1.54
 130  0.593  0.763  0.593- 135 1.49 201 1.49 206 1.52 214 2.16
 131  0.407  0.763  0.407- 129 1.49 128 1.49 127 1.52 214 2.16
 132  0.417  0.918  0.583-  83 1.53 150 1.53 128 1.54 201 1.54
 133  0.583  0.918  0.417-  83 1.53  89 1.53 135 1.54 129 1.54
 134  0.667  0.670  0.333-  61 1.51 139 1.51  47 1.51 214 2.60
 135  0.668  0.836  0.501- 130 1.49 140 1.53 139 1.54 133 1.54
 136  0.833  0.667  0.500- 118 1.53 117 1.54 138 1.54 139 1.54
 137  0.833  0.834  0.334- 141 1.53  69 1.54  71 1.54 139 1.54
 138  0.917  0.750  0.583- 120 1.54 209 1.54 190 1.54 136 1.54
 139  0.749  0.750  0.417- 134 1.51 136 1.54 135 1.54 137 1.54
 140  0.752  0.919  0.583-  91 1.52 135 1.53 158 1.54 209 1.54
 141  0.917  0.917  0.417-  73 1.53 137 1.53  91 1.53 120 1.54
 142  0.000  0.000  0.667- 125 1.53  93 1.53 147 1.53 213 1.53
 143  0.000  0.167  0.833- 165 1.53 148 1.53 147 1.53 162 1.54
 144  0.167  0.000  0.833- 146 1.53 147 1.53 196 1.53 197 1.54
 145  0.167  0.167  0.667-  77 1.53 147 1.53  79 1.53 149 1.54
 146  0.250  0.084  0.916- 144 1.53   9 1.53 151 1.53   4 1.53
 147  0.084  0.084  0.750- 144 1.53 142 1.53 145 1.53 143 1.53
 148  0.083  0.250  0.917- 143 1.53   4 1.53  25 1.54 168 1.54
 149  0.250  0.250  0.750- 168 1.53 174 1.53 145 1.54 151 1.54
 150  0.333  0.000  0.667- 132 1.53 197 1.53 155 1.54  77 1.54
 151  0.333  0.167  0.833- 155 1.53 146 1.53 156 1.53 149 1.54
 152  0.500  0.001  0.834- 205 1.52 154 1.53 204 1.53 155 1.54
 153  0.500  0.167  0.667- 155 1.53  85 1.53 157 1.54  87 1.54
 154  0.583  0.084  0.918- 152 1.53  12 1.53 159 1.53  17 1.53
 155  0.417  0.084  0.750- 153 1.53 151 1.53 152 1.54 150 1.54
 156  0.417  0.250  0.917- 176 1.52  12 1.53  33 1.53 151 1.53
 157  0.584  0.249  0.751- 159 1.53 182 1.53 176 1.54 153 1.54
 158  0.667  0.001  0.667- 163 1.53  85 1.54 140 1.54 205 1.54
 159  0.667  0.166  0.834- 157 1.53 154 1.53 164 1.53 163 1.53
 160  0.834  0.000  0.834- 163 1.53 162 1.53 213 1.54 212 1.54
 161  0.834  0.166  0.667-  95 1.53  93 1.53 165 1.53 163 1.53
 162  0.917  0.084  0.917-   1 1.53 160 1.53 143 1.54  20 1.54
 163  0.751  0.084  0.751- 158 1.53 160 1.53 161 1.53 159 1.53
 164  0.750  0.250  0.917-  20 1.53 159 1.53 184 1.54  41 1.54
 165  0.917  0.250  0.750- 143 1.53 161 1.53 184 1.54 166 1.54
 166  0.001  0.334  0.667- 115 1.53  79 1.53 165 1.54 171 1.54
 167  0.001  0.500  0.834- 189 1.53 172 1.53 171 1.54 186 1.54
 168  0.167  0.334  0.833- 170 1.53 171 1.53 149 1.53 148 1.54
 169  0.168  0.501  0.666- 103 1.53 101 1.53 173 1.54 171 1.54
 170  0.250  0.417  0.916- 168 1.53  33 1.54  28 1.54 175 1.54
 171  0.084  0.417  0.750- 168 1.53 166 1.54 167 1.54 169 1.54
 172  0.084  0.584  0.916- 167 1.53  28 1.53 192 1.54  49 1.54
 173  0.252  0.585  0.748- 198 1.51 169 1.54 175 1.54 192 1.55
 174  0.334  0.334  0.666-  87 1.53 149 1.53 179 1.54 101 1.54
 175  0.334  0.501  0.832- 180 1.53 179 1.53 173 1.54 170 1.54
 176  0.500  0.332  0.835- 156 1.52 157 1.54 178 1.54 179 1.54
 177  0.508  0.491  0.675- 179 1.48 181 1.51 109 1.52 214 2.24
 178  0.584  0.417  0.917-  41 1.53  36 1.53 183 1.54 176 1.54
 179  0.417  0.416  0.750- 177 1.48 175 1.53 174 1.54 176 1.54
 180  0.417  0.584  0.916- 200 1.53 175 1.53  57 1.54  36 1.54
 181  0.585  0.583  0.752- 177 1.51 183 1.53 200 1.54 206 1.56
 182  0.669  0.330  0.669- 109 1.52 157 1.53  95 1.53 187 1.54
 183  0.669  0.500  0.835- 188 1.53 181 1.53 187 1.54 178 1.54
 184  0.834  0.333  0.834- 187 1.53 186 1.53 164 1.54 165 1.54
 185  0.835  0.500  0.669- 189 1.53 117 1.53 187 1.54 115 1.54
 186  0.917  0.417  0.917-  25 1.53 184 1.53 167 1.54  44 1.54
 187  0.751  0.417  0.751- 184 1.53 185 1.54 183 1.54 182 1.54
 188  0.751  0.584  0.918- 183 1.53  44 1.53  65 1.54 208 1.54
 189  0.918  0.584  0.751- 185 1.53 167 1.53 190 1.54 208 1.54
 190  0.001  0.667  0.667- 195 1.53 103 1.54 189 1.54 138 1.54
 191  0.000  0.834  0.833- 196 1.53 213 1.53 210 1.54 195 1.54
 192  0.167  0.667  0.833- 194 1.53 195 1.53 172 1.54 173 1.55
 193  0.167  0.834  0.666- 125 1.53 195 1.54 197 1.54 123 1.54
 194  0.250  0.750  0.916-  57 1.53 192 1.53 199 1.54  52 1.54
 195  0.084  0.750  0.750- 190 1.53 192 1.53 193 1.54 191 1.54
 196  0.084  0.917  0.916-  52 1.53 191 1.53 144 1.53   1 1.54
 197  0.250  0.917  0.750- 150 1.53 144 1.54 193 1.54 199 1.54
 198  0.333  0.670  0.667- 203 1.51 123 1.51 173 1.51 214 2.60
 199  0.334  0.834  0.833- 204 1.53 194 1.54 197 1.54 203 1.54
 200  0.500  0.667  0.833- 180 1.53 181 1.54 202 1.54 203 1.54
 201  0.501  0.836  0.668- 130 1.49 205 1.53 203 1.54 132 1.54
 202  0.583  0.750  0.917-  60 1.54 207 1.54  65 1.54 200 1.54
 203  0.417  0.750  0.749- 198 1.51 200 1.54 201 1.54 199 1.54
 204  0.417  0.917  0.917-   9 1.53 199 1.53 152 1.53  60 1.54
 205  0.583  0.919  0.752- 152 1.52 201 1.53 158 1.54 207 1.54
 206  0.669  0.669  0.669- 130 1.52 211 1.52 181 1.56 117 1.56 214 2.63
 207  0.667  0.834  0.834- 212 1.53 202 1.54 211 1.54 205 1.54
 208  0.835  0.667  0.835- 211 1.52 210 1.52 188 1.54 189 1.54
 209  0.834  0.834  0.667- 213 1.53 138 1.54 211 1.54 140 1.54
 210  0.917  0.750  0.917- 208 1.52  49 1.53  68 1.54 191 1.54
 211  0.752  0.751  0.752- 206 1.52 208 1.52 207 1.54 209 1.54
 212  0.750  0.917  0.917- 207 1.53  68 1.53  17 1.53 160 1.54
 213  0.917  0.917  0.750- 209 1.53 191 1.53 142 1.53 160 1.54
 214  0.500  0.608  0.500- 131 2.16 130 2.16 106 2.24 177 2.24 108 2.24 112 2.24 110 2.46 109 2.46
                           198 2.60 134 2.60 127 2.63 206 2.63
 

IMPORTANT INFORMATION: All symmetrisations will be switched off!
NOSYMM: (Re-)initialisation of all symmetry stuff for point group C_1.


----------------------------------------------------------------------------------------

                                     Primitive cell                                     

  volume of cell :    1202.8529

  direct lattice vectors                    reciprocal lattice vectors
    10.635000229  0.000000000  0.000000000     0.094029147  0.000000000  0.000000000
     0.000000000 10.635000229  0.000000000     0.000000000  0.094029147  0.000000000
     0.000000000  0.000000000 10.635000229     0.000000000  0.000000000  0.094029147

  length of vectors
    10.635000229 10.635000229 10.635000229     0.094029147  0.094029147  0.094029147

  position of ions in fractional coordinates (direct lattice)
     0.000000117  0.000254303  0.999999877
     0.999638696  0.166937864  0.166560750
     0.166290329  0.000207534  0.166290215
     0.166560831  0.166937824  0.999638521
     0.249372238  0.083714037  0.249372263
     0.083142008  0.083680705  0.083141890
     0.082717931  0.250294866  0.249670573
     0.249670601  0.250294905  0.082717816
     0.333224428  0.000415627  0.999648256
     0.332823822  0.166416927  0.165576246
     0.499738051  0.001358124  0.165505821
     0.499999932  0.166875982  0.999999946
     0.583255624  0.083758461  0.249771372
     0.416518147  0.083859208  0.082498782
     0.416084532  0.248923634  0.248535390
     0.583236217  0.249836910  0.083016769
     0.666775549  0.000415688  0.000351568
     0.666616316  0.167015031  0.166783134
     0.833124154  0.000315378  0.166875849
     0.833439251  0.166937863  0.000361307
     0.916355399  0.083666734  0.249999127
     0.750000871  0.083666732  0.083644602
     0.749737033  0.250427471  0.250262968
     0.916500779  0.250399563  0.083499221
     0.000000062  0.333591273  0.999999943
     0.999183612  0.500326953  0.166382579
     0.165824760  0.333406357  0.165824712
     0.166382616  0.500326962  0.999183464
     0.248681245  0.416537805  0.248681319
     0.082893637  0.417021180  0.082893449
     0.082060778  0.583712532  0.249032928
     0.249032902  0.583712552  0.082060514
     0.333166177  0.333607730  0.999430768
     0.331485863  0.500266681  0.164789712
     0.499764827  0.332301025  0.165375466
     0.499999833  0.500364700  0.999999717
     0.582558577  0.416158090  0.249685785
     0.416304859  0.416772928  0.082695336
     0.415477780  0.582753914  0.248160996
     0.583177078  0.583648376  0.083754981
     0.666833679  0.333607799  0.000569006
     0.666017426  0.500556322  0.167637452
     0.832991723  0.333768305  0.167008283
     0.833617425  0.500326953  0.000816389
     0.915861457  0.417238202  0.250236159
     0.749763839  0.417238202  0.084138543
     0.747779001  0.584612898  0.252220995
     0.916394569  0.583818869  0.083605426
     0.000000105  0.667038219  0.999999893
     0.999528229  0.833649324  0.166584882
     0.165233012  0.667181414  0.165232922
     0.166585105  0.833649218  0.999527902
     0.247732512  0.750503103  0.247732667
     0.082691801  0.750461200  0.082691648
     0.082716695  0.917114077  0.249701236
     0.249701136  0.917114132  0.082716468
     0.333240733  0.666998704  0.999434925
     0.332916191  0.834074895  0.165698443
     0.499870462  0.666929004  0.166693531
     0.499999922  0.833754768  0.999999890
     0.583138393  0.750077849  0.250906815
     0.416521621  0.750276773  0.083074206
     0.416616765  0.919114766  0.247961809
     0.583300674  0.917290966  0.083161162
     0.666759212  0.666998743  0.000564689
     0.666112909  0.834087976  0.166597287
     0.832812077  0.666772165  0.167187923
     0.833415119  0.833649323  0.000471768
     0.916096541  0.750402223  0.250252127
     0.749747868  0.750402229  0.083903459
     0.749726721  0.916985905  0.250273275
     0.916474847  0.917039107  0.083525154
     0.999648428  0.000415687  0.333224451
     0.000000055  0.166875981  0.500000064
     0.165505893  0.001358094  0.499738175
     0.165576373  0.166417010  0.332823950
     0.249771449  0.083758342  0.583255765
     0.082498979  0.083859143  0.416518329
     0.083016924  0.249836946  0.583236343
     0.248535238  0.248923522  0.416084664
     0.332698999  0.001112252  0.332699088
     0.332976536  0.166677342  0.499779972
     0.499999801  0.000616206  0.500000191
     0.499779787  0.166677211  0.332976552
     0.583567393  0.083738439  0.583567571
     0.416432423  0.083738440  0.416432601
     0.416611369  0.249878663  0.583388631
     0.583388315  0.249878808  0.416611689
     0.666568252  0.000488386  0.333431740
     0.667023446  0.166677210  0.500220208
     0.834494175  0.001358124  0.500261930
     0.833216869  0.167015037  0.333383680
     0.917501212  0.083859204  0.583481847
     0.750228620  0.083758462  0.416744370
     0.751464612  0.248923626  0.583915473
     0.916983235  0.249836911  0.416763783
     0.999430998  0.333607807  0.333166327
     0.000000284  0.500364703  0.500000162
     0.165375851  0.332301340  0.499765101
     0.164790045  0.500266747  0.331486285
     0.249685818  0.416158294  0.582558676
     0.082695465  0.416772848  0.416304942
     0.083755337  0.583648395  0.583177212
     0.248160820  0.582753856  0.415477966
     0.330669604  0.330080499  0.330669895
     0.324767394  0.491242309  0.492164744
     0.499999764  0.332023665  0.500000231
     0.492163658  0.491242432  0.324768042
     0.586874771  0.412216198  0.586874956
     0.413125048  0.412216208  0.413125248
     0.666321861  0.333575150  0.333678139
     0.675231978  0.491242414  0.507836349
     0.834624541  0.332301023  0.500235176
     0.832362549  0.500556318  0.333982577
     0.917304667  0.416772930  0.583695149
     0.750314225  0.416158080  0.417441424
     0.751839006  0.582753910  0.584522239
     0.916245015  0.583648378  0.416822934
     0.999435310  0.666998735  0.333240790
     0.000000106  0.833754753  0.500000069
     0.166693961  0.666928944  0.499870931
     0.165698484  0.834074971  0.332916216
     0.250906958  0.750077699  0.583138762
     0.083074742  0.750276659  0.416521973
     0.083161581  0.917290787  0.583300922
     0.247961897  0.919114518  0.416617154
     0.330650027  0.669040523  0.330650445
     0.331514825  0.836158622  0.498811042
     0.498810216  0.836158436  0.331515521
     0.593475125  0.762812216  0.593474829
     0.406525181  0.762812211  0.406524873
     0.416788929  0.917555064  0.583211071
     0.583211033  0.917555383  0.416788964
     0.667095247  0.669645170  0.332904740
     0.668484471  0.836158437  0.501189772
     0.833306467  0.666928999  0.500129541
     0.833402711  0.834087966  0.333887082
     0.916925784  0.750276768  0.583478377
     0.749093177  0.750077842  0.416861602
     0.752038180  0.919114768  0.583383227
     0.916838834  0.917290962  0.416699320
     0.000351735  0.000415623  0.666775565
     0.000361477  0.166937825  0.833439168
     0.166876049  0.000315187  0.833123946
     0.166783203  0.167014996  0.666616373
     0.249999127  0.083666722  0.916355245
     0.083644749  0.083666719  0.750000867
     0.083499405  0.250399629  0.916500592
     0.250263046  0.250427615  0.749736955
     0.333431655  0.000488189  0.666568345
     0.333383629  0.167014993  0.833216800
     0.500261825  0.001358097  0.834494104
     0.500220027  0.166677340  0.667023464
     0.583481675  0.083859145  0.917501020
     0.416744234  0.083758342  0.750228546
     0.416763665  0.249836943  0.916983076
     0.583915347  0.248923515  0.751464771
     0.667300907  0.001112255  0.667300991
     0.667176060  0.166417006  0.834423630
     0.833709779  0.000207531  0.833709663
     0.834423760  0.166416921  0.667176172
     0.916858104  0.083680703  0.916857988
     0.750627736  0.083714032  0.750627757
     0.750329428  0.250294862  0.917282072
     0.917282182  0.250294903  0.750329394
     0.000569233  0.333607733  0.666833823
     0.000816539  0.500326963  0.833617385
     0.167008315  0.333768275  0.832991685
     0.167637968  0.500556503  0.666017434
     0.250236301  0.417238382  0.915861088
     0.084138908  0.417238381  0.749763696
     0.083605743  0.583818949  0.916394258
     0.252221266  0.584613161  0.747778724
     0.333678156  0.333575526  0.666321855
     0.333982562  0.500556502  0.832362035
     0.500234912  0.332301334  0.834624157
     0.507835260  0.491242301  0.675232603
     0.583695058  0.416772840  0.917304550
     0.417441328  0.416158294  0.750314188
     0.416822779  0.583648393  0.916244664
     0.584522027  0.582753856  0.751839195
     0.669330116  0.330080485  0.669330403
     0.668513708  0.500266739  0.835209968
     0.834175297  0.333406351  0.834175247
     0.835210291  0.500266679  0.668514157
     0.917106552  0.417021179  0.917106361
     0.751318683  0.416537799  0.751318766
     0.750967069  0.583712533  0.917939221
     0.917939482  0.583712549  0.750967097
     0.000565073  0.666998700  0.666759254
     0.000472089  0.833649218  0.833414890
     0.167188306  0.666771973  0.832811693
     0.166597689  0.834087683  0.666112749
     0.250252142  0.750402263  0.916096235
     0.083903758  0.750402259  0.749747851
     0.083525250  0.917039133  0.916474745
     0.250273295  0.916985751  0.749726697
     0.332904911  0.669644589  0.667095086
     0.333887249  0.834087687  0.833402302
     0.500129045  0.666928944  0.833306039
     0.501188958  0.836158623  0.668485179
     0.583478021  0.750276663  0.916925254
     0.416861233  0.750077704  0.749093037
     0.416699078  0.917290795  0.916838409
     0.583382849  0.919114521  0.752038100
     0.669349549  0.669040520  0.669349977
     0.667083782  0.834074974  0.834301515
     0.834767079  0.667181417  0.834766983
     0.834301552  0.834074897  0.667083801
     0.917308347  0.750461200  0.917308195
     0.752267329  0.750503103  0.752267486
     0.750298759  0.917114073  0.917283300
     0.917283519  0.917114129  0.750298853
     0.499999122  0.608151260  0.500000875

  ion indices of the primitive-cell ions
   primitive index   ion index
                 1           1
                 2           2
                 3           3
                 4           4
                 5           5
                 6           6
                 7           7
                 8           8
                 9           9
                10          10
                11          11
                12          12
                13          13
                14          14
                15          15
                16          16
                17          17
                18          18
                19          19
                20          20
                21          21
                22          22
                23          23
                24          24
                25          25
                26          26
                27          27
                28          28
                29          29
                30          30
                31          31
                32          32
                33          33
                34          34
                35          35
                36          36
                37          37
                38          38
                39          39
                40          40
                41          41
                42          42
                43          43
                44          44
                45          45
                46          46
                47          47
                48          48
                49          49
                50          50
                51          51
                52          52
                53          53
                54          54
                55          55
                56          56
                57          57
                58          58
                59          59
                60          60
                61          61
                62          62
                63          63
                64          64
                65          65
                66          66
                67          67
                68          68
                69          69
                70          70
                71          71
                72          72
                73          73
                74          74
                75          75
                76          76
                77          77
                78          78
                79          79
                80          80
                81          81
                82          82
                83          83
                84          84
                85          85
                86          86
                87          87
                88          88
                89          89
                90          90
                91          91
                92          92
                93          93
                94          94
                95          95
                96          96
                97          97
                98          98
                99          99
               100         100
               101         101
               102         102
               103         103
               104         104
               105         105
               106         106
               107         107
               108         108
               109         109
               110         110
               111         111
               112         112
               113         113
               114         114
               115         115
               116         116
               117         117
               118         118
               119         119
               120         120
               121         121
               122         122
               123         123
               124         124
               125         125
               126         126
               127         127
               128         128
               129         129
               130         130
               131         131
               132         132
               133         133
               134         134
               135         135
               136         136
               137         137
               138         138
               139         139
               140         140
               141         141
               142         142
               143         143
               144         144
               145         145
               146         146
               147         147
               148         148
               149         149
               150         150
               151         151
               152         152
               153         153
               154         154
               155         155
               156         156
               157         157
               158         158
               159         159
               160         160
               161         161
               162         162
               163         163
               164         164
               165         165
               166         166
               167         167
               168         168
               169         169
               170         170
               171         171
               172         172
               173         173
               174         174
               175         175
               176         176
               177         177
               178         178
               179         179
               180         180
               181         181
               182         182
               183         183
               184         184
               185         185
               186         186
               187         187
               188         188
               189         189
               190         190
               191         191
               192         192
               193         193
               194         194
               195         195
               196         196
               197         197
               198         198
               199         199
               200         200
               201         201
               202         202
               203         203
               204         204
               205         205
               206         206
               207         207
               208         208
               209         209
               210         210
               211         211
               212         212
               213         213
               214         214

----------------------------------------------------------------------------------------

 
 
 KPOINTS: 1 x 1 x 1 k-mesh (automatic generation o

Automatic generation of k-mesh.
 Grid dimensions read from file:
 generate k-points for:    1    1    1

 Generating k-lattice:

  Cartesian coordinates                     Fractional coordinates (reciprocal lattice)
     0.094029147  0.000000000  0.000000000     1.000000000  0.000000000  0.000000000
     0.000000000  0.094029147  0.000000000     0.000000000  1.000000000  0.000000000
     0.000000000  0.000000000  0.094029147     0.000000000  0.000000000  1.000000000

  Length of vectors
     0.094029147  0.094029147  0.094029147

  Shift w.r.t. Gamma in fractional coordinates (k-lattice)
     0.000000000  0.000000000  0.000000000

 
 Subroutine IBZKPT returns following result:
 ===========================================
 
 Found      1 irreducible k-points:
 
 Following reciprocal coordinates:
            Coordinates               Weight
  0.000000  0.000000  0.000000      1.000000
 
 Following cartesian coordinates:
            Coordinates               Weight
  0.000000  0.000000  0.000000      1.000000
 
 
 Subroutine IBZKPT_HF returns following result:
 ==============================================
 
 Found      1 k-points in 1st BZ
 the following      1 k-points will be used (e.g. in the exchange kernel)
 Following reciprocal coordinates:   # in IRBZ
  0.000000  0.000000  0.000000    1.00000000   1 t-inv F


--------------------------------------------------------------------------------------------------------




 Dimension of arrays:
   k-points           NKPTS =      1   k-points in BZ     NKDIM =      1   number of bands    NBANDS=    648
   number of dos      NEDOS =    301   number of ions     NIONS =    214
   non local maximal  LDIM  =      8   non local SUM 2l+1 LMDIM =     32
   total plane-waves  NPLWV = 884736
   max r-space proj   IRMAX =      1   max aug-charges    IRDMAX=  39184
   dimension x,y,z NGX =    96 NGY =   96 NGZ =   96
   dimension x,y,z NGXF=   192 NGYF=  192 NGZF=  192
   support grid    NGXF=   192 NGYF=  192 NGZF=  192
   ions per type =             213   1
   NGX,Y,Z   is equivalent  to a cutoff of  15.01, 15.01, 15.01 a.u.
   NGXF,Y,Z  is equivalent  to a cutoff of  30.01, 30.01, 30.01 a.u.

 SYSTEM =  unknown system                          
 POSCAR =  prv2                                    

 Startparameter for this run:
   NWRITE =      2    write-flag & timer
   PREC   = accura    normal or accurate (medium, high low for compatibility)
   ISTART =      1    job   : 0-new  1-cont  2-samecut
   ICHARG =      0    charge: 1-file 2-atom 10-const
   ISPIN  =      2    spin polarized calculation?
   LNONCOLLINEAR =      F non collinear calculations
   LSORBIT =      F    spin-orbit coupling
   INIWAV =      1    electr: 0-lowe 1-rand  2-diag
   LASPH  =      F    aspherical Exc in radial PAW
 Electronic Relaxation 1
   ENCUT  =  700.0 eV  51.45 Ry    7.17 a.u.  22.94 22.94 22.94*2*pi/ulx,y,z
   ENINI  =  700.0     initial cutoff
   ENAUG  = 1400.0 eV  augmentation charge cutoff
   NELM   =     60;   NELMIN=  2; NELMDL=  0     # of ELM steps 
   EDIFF  = 0.1E-05   stopping-criterion for ELM
   LREAL  =      F    real-space projection
   NLSPLINE    = F    spline interpolate recip. space projectors
   LCOMPAT=      F    compatible to vasp.4.4
   GGA_COMPAT  = T    GGA compatible to vasp.4.4-vasp.4.6
   LMAXPAW     = -100 max onsite density
   LMAXMIX     =    2 max onsite mixed and CHGCAR
   VOSKOWN=      0    Vosko Wilk Nusair interpolation
   ROPT   =    0.00000   0.00000
 Ionic relaxation
   EDIFFG = -.1E-01   stopping-criterion for IOM
   NSW    =      0    number of steps for IOM
   NBLOCK =      1;   KBLOCK =      1    inner block; outer block 
   IBRION =     -1    ionic relax: 0-MD 1-quasi-New 2-CG
   NFREE  =      1    steps in history (QN), initial steepest desc. (CG)
   ISIF   =      1    stress and relaxation
   IWAVPR =     10    prediction:  0-non 1-charg 2-wave 3-comb
   ISYM   =      0    0-nonsym 1-usesym 2-fastsym
   LCORR  =      T    Harris-Foulkes like correction to forces

   POTIM  = 0.2000    time-step for ionic-motion
   TEIN   =    0.0    initial temperature
   TEBEG  =    0.0;   TEEND  =   0.0 temperature during run
   SMASS  =  -3.00    Nose mass-parameter (am)
   estimated Nose-frequenzy (Omega)   =  0.10E-29 period in steps = 0.31E+47 mass=  -0.258E-26a.u.
   SCALEE = 1.0000    scale energy and forces
   NPACO  =    256;   APACO  = 16.0  distance and # of slots for P.C.
   PSTRESS=    0.0 pullay stress

  Mass of Ions in am
   POMASS =  12.01140.91
  Ionic Valenz
   ZVAL   =   4.00 13.00
  Atomic Wigner-Seitz radii
   RWIGS  =  -1.00 -1.00
  virtual crystal weights 
   VCA    =   1.00  1.00
   NELECT =     866.0000    total number of electrons
   NUPDOWN=      -1.0000    fix difference up-down

 DOS related values:
   EMIN   =  10.00;   EMAX   =-10.00  energy-range for DOS
   EFERMI =   0.00
   ISMEAR =     0;   SIGMA  =   0.01  broadening in eV -4-tet -1-fermi 0-gaus

 Electronic relaxation 2 (details)
   IALGO  =     58    algorithm
   LDIAG  =      T    sub-space diagonalisation (order eigenvalues)
   LSUBROT=      F    optimize rotation matrix (better conditioning)
   TURBO    =      0    0=normal 1=particle mesh
   IRESTART =      0    0=no restart 2=restart with 2 vectors
   NREBOOT  =      0    no. of reboots
   NMIN     =      0    reboot dimension
   EREF     =   0.00    reference energy to select bands
   IMIX   =      4    mixing-type and parameters
     AMIX     =   0.40;   BMIX     =  1.00
     AMIX_MAG =   1.60;   BMIX_MAG =  1.00
     AMIN     =   0.10
     WC   =   100.;   INIMIX=   1;  MIXPRE=   1;  MAXMIX= -45

 Intra band minimization:
   WEIMIN = 0.0000     energy-eigenvalue tresh-hold
   EBREAK =  0.39E-09  absolut break condition
   DEPER  =   0.30     relativ break condition  

   TIME   =   0.40     timestep for ELM

  volume/ion in A,a.u.               =       5.62        37.93
  Fermi-wavevector in a.u.,A,eV,Ry     =   1.467270  2.772738 29.291717  2.152880
  Thomas-Fermi vector in A             =   2.582908
 
 Write flags
   LWAVE        =      T    write WAVECAR
   LDOWNSAMPLE  =      F    k-point downsampling of WAVECAR
   LCHARG       =      T    write CHGCAR
   LVTOT        =      F    write LOCPOT, total local potential
   LVHAR        =      F    write LOCPOT, Hartree potential only
   LELF         =      F    write electronic localiz. function (ELF)
   LORBIT       =      0    0 simple, 1 ext, 2 COOP (PROOUT), +10 PAW based schemes


 Dipole corrections
   LMONO  =      F    monopole corrections only (constant potential shift)
   LDIPOL =      F    correct potential (dipole corrections)
   IDIPOL =      0    1-x, 2-y, 3-z, 4-all directions 
   EPSILON=  1.0000000 bulk dielectric constant

 Exchange correlation treatment:
   GGA     =    PE    GGA type
   LEXCH   =     8    internal setting for exchange type
   VOSKOWN=      0    Vosko Wilk Nusair interpolation
   EXXOEP  =     0    0=HF, 1=EXX-LHF (local Hartree Fock) 2=EXX OEP
   LHFCALC =     T    Hartree Fock is set to
   LSYMGRAD=     F    symmetrize gradient (conserves proper symmetry)
   PRECFOCK=normal    Normal, Fast or Accurate (Low or Medium for compatibility)
   LRHFCALC=     F    long range Hartree Fock
   LRSCOR  =     F    long range correlation only (use DFT for short range part)
   LTHOMAS =     F    Thomas Fermi screening in HF
   LMODELHF=     F    short range full HF, long range fraction AEXX
   LFOCKACE=     T    use Adeptively-Compressed-Exchange operator
   ENCUT4O =  -1.0   cutoff for four orbital integrals eV
   LMAXFOCK=     4    L truncation for augmentation on plane wave grid
   LMAXFOCKAE=  -1    L truncation for all-electron charge restoration on plane wave grid
   NMAXFOCKAE=   1    number of basis functions for all-electron charge restoration
   LFOCKAEDFT=     F  apply the AE augmentation even for DFT
   NKREDX  =     1    reduce k-point grid by
   NKREDY  =     1    reduce k-point grid by
   NKREDZ  =     1    reduce k-point grid by
   SHIFTRED=     F    shift reduced grid of Gamma
   HFKIDENT=     F    idential grid for each k-point
   ODDONLY =     F    use only odd q-grid points
   EVENONLY=     F    use only even q-grid points
   HFALPHA =   -1.0000 decay constant for conv. correction
   MCALPHA =    0.0000 extent of test-charge in conv. correction in multipole expansion
   AEXX    =    0.2500 exact exchange contribution
   HFSCREEN=    0.2000 screening length (either q_TF or 0.3 A-1)
   HFSCREENC=   0.2000 screening length for correlation (either q_TF or 0.3 A-1)
   HFRCUT  =    0.0000 spherical cutoff for potential kernel
   ALDAX   =    0.7500 LDA exchange part
   AGGAX   =    0.7500 GGA exchange part
   ALDAC   =    1.0000 LDA correlation
   AGGAC   =    1.0000 GGA correlation
   ENCUTFOCK=  -1.0 apply spherical cutoff to Coloumb kernel
   NBANDSGWLOW=     1    first orbital included in HF term
   NBLOCK_FOCK=    64    blocking factor in FOCK_ACC
 Linear response parameters
   LEPSILON=     F    determine dielectric tensor
   LRPA    =     F    only Hartree local field effects (RPA)
   LNABLA  =     F    use nabla operator in PAW spheres
   LVEL    =     F    velocity operator in full k-point grid
   LINTERFAST=   F  fast interpolation
   KINTER  =     0    interpolate to denser k-point grid
   CSHIFT  =0.1000    complex shift for real part using Kramers Kronig
   OMEGAMAX=  -1.0    maximum frequency
   DEG_THRESHOLD= 0.2000000E-02 threshold for treating states as degnerate
   RTIME   =   -0.100 relaxation time in fs
  (WPLASMAI=    0.000 imaginary part of plasma frequency in eV, 0.658/RTIME)
   DFIELD  = 0.0000000 0.0000000 0.0000000 field for delta impulse in time
 
 Orbital magnetization related:
   ORBITALMAG=     F  switch on orbital magnetization
   LCHIMAG   =     F  perturbation theory with respect to B field
   DQ        =  0.001000  dq finite difference perturbation B field
   LLRAUG    =     F  two centre corrections for induced B field



--------------------------------------------------------------------------------------------------------


 Static calculation
 charge density and potential will be updated during run
 spin polarized calculation
 Conjugate gradient for all bands (Freysoldt, et al. PRB 79, 241103 (2009))
 preconditioned conjugated gradient                                        
 perform sub-space diagonalisation
    before iterative eigenvector-optimisation
 modified Broyden-mixing scheme, WC =      100.0
 initial mixing is a Kerker type mixing with AMIX =  0.4000 and BMIX =      1.0000
 Hartree-type preconditioning will be used
 using additional bands          215
 reciprocal scheme for non local part
 use partial core corrections
 no Harris-corrections to forces 
 use gradient corrections 
 use of overlap-Matrix (Vanderbilt PP)
 Gauss-broadening in eV      SIGMA  =   0.01


--------------------------------------------------------------------------------------------------------


  energy-cutoff  :      700.00
  volume of cell :     1202.85
      direct lattice vectors                 reciprocal lattice vectors
    10.635000229  0.000000000  0.000000000     0.094029147  0.000000000  0.000000000
     0.000000000 10.635000229  0.000000000     0.000000000  0.094029147  0.000000000
     0.000000000  0.000000000 10.635000229     0.000000000  0.000000000  0.094029147

  length of vectors
    10.635000229 10.635000229 10.635000229     0.094029147  0.094029147  0.094029147


 
 old parameters found on file WAVECAR:
  energy-cutoff  :      700.00
  volume of cell :     1202.85
      direct lattice vectors                 reciprocal lattice vectors
    10.635000229  0.000000000  0.000000000     0.094029147  0.000000000  0.000000000
     0.000000000 10.635000229  0.000000000     0.000000000  0.094029147  0.000000000
     0.000000000  0.000000000 10.635000229     0.000000000  0.000000000  0.094029147

  length of vectors

 
 k-points in units of 2pi/SCALE and weight: 1 x 1 x 1 k-mesh (automatic generation o
   0.00000000  0.00000000  0.00000000       1.000
 
 k-points in reciprocal lattice and weights: 1 x 1 x 1 k-mesh (automatic generation o
   0.00000000  0.00000000  0.00000000       1.000
 
 position of ions in fractional coordinates (direct lattice) 
   0.00000012  0.00025430  0.99999988
   0.99963870  0.16693786  0.16656075
   0.16629033  0.00020753  0.16629021
   0.16656083  0.16693782  0.99963852
   0.24937224  0.08371404  0.24937226
   0.08314201  0.08368071  0.08314189
   0.08271793  0.25029487  0.24967057
   0.24967060  0.25029491  0.08271782
   0.33322443  0.00041563  0.99964826
   0.33282382  0.16641693  0.16557625
   0.49973805  0.00135812  0.16550582
   0.49999993  0.16687598  0.99999995
   0.58325562  0.08375846  0.24977137
   0.41651815  0.08385921  0.08249878
   0.41608453  0.24892363  0.24853539
   0.58323622  0.24983691  0.08301677
   0.66677555  0.00041569  0.00035157
   0.66661632  0.16701503  0.16678313
   0.83312415  0.00031538  0.16687585
   0.83343925  0.16693786  0.00036131
   0.91635540  0.08366673  0.24999913
   0.75000087  0.08366673  0.08364460
   0.74973703  0.25042747  0.25026297
   0.91650078  0.25039956  0.08349922
   0.00000006  0.33359127  0.99999994
   0.99918361  0.50032695  0.16638258
   0.16582476  0.33340636  0.16582471
   0.16638262  0.50032696  0.99918346
   0.24868124  0.41653780  0.24868132
   0.08289364  0.41702118  0.08289345
   0.08206078  0.58371253  0.24903293
   0.24903290  0.58371255  0.08206051
   0.33316618  0.33360773  0.99943077
   0.33148586  0.50026668  0.16478971
   0.49976483  0.33230103  0.16537547
   0.49999983  0.50036470  0.99999972
   0.58255858  0.41615809  0.24968578
   0.41630486  0.41677293  0.08269534
   0.41547778  0.58275391  0.24816100
   0.58317708  0.58364838  0.08375498
   0.66683368  0.33360780  0.00056901
   0.66601743  0.50055632  0.16763745
   0.83299172  0.33376830  0.16700828
   0.83361742  0.50032695  0.00081639
   0.91586146  0.41723820  0.25023616
   0.74976384  0.41723820  0.08413854
   0.74777900  0.58461290  0.25222100
   0.91639457  0.58381887  0.08360543
   0.00000010  0.66703822  0.99999989
   0.99952823  0.83364932  0.16658488
   0.16523301  0.66718141  0.16523292
   0.16658511  0.83364922  0.99952790
   0.24773251  0.75050310  0.24773267
   0.08269180  0.75046120  0.08269165
   0.08271669  0.91711408  0.24970124
   0.24970114  0.91711413  0.08271647
   0.33324073  0.66699870  0.99943493
   0.33291619  0.83407489  0.16569844
   0.49987046  0.66692900  0.16669353
   0.49999992  0.83375477  0.99999989
   0.58313839  0.75007785  0.25090681
   0.41652162  0.75027677  0.08307421
   0.41661677  0.91911477  0.24796181
   0.58330067  0.91729097  0.08316116
   0.66675921  0.66699874  0.00056469
   0.66611291  0.83408798  0.16659729
   0.83281208  0.66677217  0.16718792
   0.83341512  0.83364932  0.00047177
   0.91609654  0.75040222  0.25025213
   0.74974787  0.75040223  0.08390346
   0.74972672  0.91698590  0.25027327
   0.91647485  0.91703911  0.08352515
   0.99964843  0.00041569  0.33322445
   0.00000006  0.16687598  0.50000006
   0.16550589  0.00135809  0.49973817
   0.16557637  0.16641701  0.33282395
   0.24977145  0.08375834  0.58325577
   0.08249898  0.08385914  0.41651833
   0.08301692  0.24983695  0.58323634
   0.24853524  0.24892352  0.41608466
   0.33269900  0.00111225  0.33269909
   0.33297654  0.16667734  0.49977997
   0.49999980  0.00061621  0.50000019
   0.49977979  0.16667721  0.33297655
   0.58356739  0.08373844  0.58356757
   0.41643242  0.08373844  0.41643260
   0.41661137  0.24987866  0.58338863
   0.58338831  0.24987881  0.41661169
   0.66656825  0.00048839  0.33343174
   0.66702345  0.16667721  0.50022021
   0.83449417  0.00135812  0.50026193
   0.83321687  0.16701504  0.33338368
   0.91750121  0.08385920  0.58348185
   0.75022862  0.08375846  0.41674437
   0.75146461  0.24892363  0.58391547
   0.91698324  0.24983691  0.41676378
   0.99943100  0.33360781  0.33316633
   0.00000028  0.50036470  0.50000016
   0.16537585  0.33230134  0.49976510
   0.16479005  0.50026675  0.33148628
   0.24968582  0.41615829  0.58255868
   0.08269546  0.41677285  0.41630494
   0.08375534  0.58364840  0.58317721
   0.24816082  0.58275386  0.41547797
   0.33066960  0.33008050  0.33066990
   0.32476739  0.49124231  0.49216474
   0.49999976  0.33202367  0.50000023
   0.49216366  0.49124243  0.32476804
   0.58687477  0.41221620  0.58687496
   0.41312505  0.41221621  0.41312525
   0.66632186  0.33357515  0.33367814
   0.67523198  0.49124241  0.50783635
   0.83462454  0.33230102  0.50023518
   0.83236255  0.50055632  0.33398258
   0.91730467  0.41677293  0.58369515
   0.75031423  0.41615808  0.41744142
   0.75183901  0.58275391  0.58452224
   0.91624502  0.58364838  0.41682293
   0.99943531  0.66699873  0.33324079
   0.00000011  0.83375475  0.50000007
   0.16669396  0.66692894  0.49987093
   0.16569848  0.83407497  0.33291622
   0.25090696  0.75007770  0.58313876
   0.08307474  0.75027666  0.41652197
   0.08316158  0.91729079  0.58330092
   0.24796190  0.91911452  0.41661715
   0.33065003  0.66904052  0.33065044
   0.33151483  0.83615862  0.49881104
   0.49881022  0.83615844  0.33151552
   0.59347513  0.76281222  0.59347483
   0.40652518  0.76281221  0.40652487
   0.41678893  0.91755506  0.58321107
   0.58321103  0.91755538  0.41678896
   0.66709525  0.66964517  0.33290474
   0.66848447  0.83615844  0.50118977
   0.83330647  0.66692900  0.50012954
   0.83340271  0.83408797  0.33388708
   0.91692578  0.75027677  0.58347838
   0.74909318  0.75007784  0.41686160
   0.75203818  0.91911477  0.58338323
   0.91683883  0.91729096  0.41669932
   0.00035173  0.00041562  0.66677556
   0.00036148  0.16693782  0.83343917
   0.16687605  0.00031519  0.83312395
   0.16678320  0.16701500  0.66661637
   0.24999913  0.08366672  0.91635525
   0.08364475  0.08366672  0.75000087
   0.08349941  0.25039963  0.91650059
   0.25026305  0.25042762  0.74973695
   0.33343166  0.00048819  0.66656834
   0.33338363  0.16701499  0.83321680
   0.50026183  0.00135810  0.83449410
   0.50022003  0.16667734  0.66702346
   0.58348167  0.08385914  0.91750102
   0.41674423  0.08375834  0.75022855
   0.41676366  0.24983694  0.91698308
   0.58391535  0.24892351  0.75146477
   0.66730091  0.00111226  0.66730099
   0.66717606  0.16641701  0.83442363
   0.83370978  0.00020753  0.83370966
   0.83442376  0.16641692  0.66717617
   0.91685810  0.08368070  0.91685799
   0.75062774  0.08371403  0.75062776
   0.75032943  0.25029486  0.91728207
   0.91728218  0.25029490  0.75032939
   0.00056923  0.33360773  0.66683382
   0.00081654  0.50032696  0.83361738
   0.16700832  0.33376827  0.83299169
   0.16763797  0.50055650  0.66601743
   0.25023630  0.41723838  0.91586109
   0.08413891  0.41723838  0.74976370
   0.08360574  0.58381895  0.91639426
   0.25222127  0.58461316  0.74777872
   0.33367816  0.33357553  0.66632185
   0.33398256  0.50055650  0.83236203
   0.50023491  0.33230133  0.83462416
   0.50783526  0.49124230  0.67523260
   0.58369506  0.41677284  0.91730455
   0.41744133  0.41615829  0.75031419
   0.41682278  0.58364839  0.91624466
   0.58452203  0.58275386  0.75183919
   0.66933012  0.33008048  0.66933040
   0.66851371  0.50026674  0.83520997
   0.83417530  0.33340635  0.83417525
   0.83521029  0.50026668  0.66851416
   0.91710655  0.41702118  0.91710636
   0.75131868  0.41653780  0.75131877
   0.75096707  0.58371253  0.91793922
   0.91793948  0.58371255  0.75096710
   0.00056507  0.66699870  0.66675925
   0.00047209  0.83364922  0.83341489
   0.16718831  0.66677197  0.83281169
   0.16659769  0.83408768  0.66611275
   0.25025214  0.75040226  0.91609623
   0.08390376  0.75040226  0.74974785
   0.08352525  0.91703913  0.91647474
   0.25027330  0.91698575  0.74972670
   0.33290491  0.66964459  0.66709509
   0.33388725  0.83408769  0.83340230
   0.50012905  0.66692894  0.83330604
   0.50118896  0.83615862  0.66848518
   0.58347802  0.75027666  0.91692525
   0.41686123  0.75007770  0.74909304
   0.41669908  0.91729080  0.91683841
   0.58338285  0.91911452  0.75203810
   0.66934955  0.66904052  0.66934998
   0.66708378  0.83407497  0.83430151
   0.83476708  0.66718142  0.83476698
   0.83430155  0.83407490  0.66708380
   0.91730835  0.75046120  0.91730819
   0.75226733  0.75050310  0.75226749
   0.75029876  0.91711407  0.91728330
   0.91728352  0.91711413  0.75029885
   0.49999912  0.60815126  0.50000088
 
 position of ions in cartesian coordinates  (Angst):
   0.00000125  0.00270451 10.63499892
  10.63115776  1.77538423  1.77137361
   1.76849768  0.00220713  1.76849647
   1.77137448  1.77538380 10.63115590
   2.65207381  0.89029880  2.65207408
   0.88421527  0.88994432  0.88421402
   0.87970521  2.66188596  2.65524660
   2.65524690  2.66188637  0.87970400
   3.54384187  0.00442019 10.63125943
   3.53958142  1.76984406  1.76090341
   5.31471428  0.01444365  1.76015444
   5.31749939  1.77472611 10.63499965
   6.20292369  0.89077125  2.65631860
   4.42967058  0.89184270  0.87737457
   4.42505909  2.64730290  2.64317393
   6.20271731  2.65701560  0.88288336
   7.09115811  0.00442084  0.00373893
   7.08946467  1.77620489  1.77373867
   8.86027556  0.00335404  1.77472469
   8.86362662  1.77538421  0.00384250
   9.74543987  0.88979574  2.65874078
   7.97625943  0.88979572  0.88956036
   7.97345351  2.66329621  2.66154672
   9.74698599  2.66299941  0.88801424
   0.00000066  3.54774326 10.63499962
  10.62631794  5.32097726  1.76947877
   1.76354636  3.54577668  1.76354585
   1.76947916  5.32097735 10.62631637
   2.64472509  4.42987965  2.64472588
   0.88157385  4.43502034  0.88157185
   0.87271640  6.20778291  2.64846525
   2.64846497  6.20778313  0.87271359
   3.54322237  3.54791829 10.62894645
   3.52535223  5.32033627  1.75253863
   5.31499905  3.53402148  1.75876812
   5.31749834  5.32137869 10.63499722
   6.19551059  4.42584138  2.65540838
   4.42740228  4.43238019  0.87946492
   4.41860629  6.19758801  2.63919225
   6.20208836  6.20710061  0.89073424
   7.09177632  3.54791902  0.00605138
   7.08309548  5.32341660  1.78282434
   8.85886716  3.54962600  1.77613313
   8.86552150  5.32097726  0.00868230
   9.74018681  4.43732837  2.66126161
   7.97373860  4.43732837  0.89481342
   7.95262985  6.21735830  2.68237034
   9.74585645  6.20891381  0.88914372
   0.00000112  7.09395161 10.63499909
  10.62998294  8.86586075  1.77163026
   1.75725312  7.09547449  1.75725217
   1.77163263  8.86585963 10.62997947
   2.63463533  7.98160067  2.63463697
   0.87942732  7.98115503  0.87942570
   0.87969207  9.75350842  2.65557270
   2.65557164  9.75350900  0.87968966
   3.54401527  7.09353137 10.62899066
   3.54056376  8.87038670  1.76220298
   5.31612247  7.09279011  1.77278574
   5.31749928  8.86698214 10.63499906
   6.20167694  7.97707810  2.66839403
   4.42970753  7.97919366  0.88349420
   4.43071939  9.77478574  2.63707390
   6.20340280  9.75538964  0.88441898
   7.09098437  7.09353179  0.00600547
   7.08411094  8.87052582  1.77176219
   8.85695663  7.09112213  1.77804360
   8.86336998  8.86586074  0.00501726
   9.74268692  7.98052781  2.66143143
   7.97356875  7.98052787  0.89231331
   7.97334385  9.75214530  2.66165633
   9.74671020  9.75271111  0.88829004
  10.63126126  0.00442083  3.54384212
   0.00000059  1.77472610  5.31750079
   1.76015521  0.01444332  5.31471560
   1.76090477  1.76984494  3.53958278
   2.65631941  0.89076998  6.20292520
   0.87737667  0.89184201  4.42967253
   0.88288501  2.65701598  6.20271864
   2.64317231  2.64730171  4.42506050
   3.53825393  0.01182880  3.53825487
   3.54120554  1.77261357  5.31516012
   5.31749800  0.00655335  5.31750214
   5.31515815  1.77261217  3.54120571
   6.20623936  0.89055831  6.20624125
   4.42875891  0.89055832  4.42876081
   4.43066200  2.65745964  6.20433822
   6.20433486  2.65746118  4.43066540
   7.08895352  0.00519398  3.54604663
   7.09379450  1.77261216  5.31984203
   8.87484574  0.01444365  5.32028574
   8.86126159  1.77620495  3.54553552
   9.75762560  0.89184265  6.20532957
   7.97868155  0.89077126  4.43207647
   7.99182632  2.64730282  6.20994119
   9.75211692  2.65701561  4.43228293
  10.62894890  3.54791911  3.54322396
   0.00000303  5.32137873  5.31750184
   1.75877222  3.53402483  5.31500196
   1.75254217  5.32033697  3.52535671
   2.65540873  4.42584355  6.19551165
   0.87946629  4.43237933  4.42740316
   0.89073803  6.20710082  6.20208978
   2.63919038  6.19758739  4.41860827
   3.51667131  3.51040618  3.51667441
   3.45390131  5.22436207  5.23417217
   5.31749761  3.53107176  5.31750257
   5.23416062  5.22436338  3.45390820
   6.24141332  4.38391936  6.24141529
   4.39358498  4.38391946  4.39358711
   7.08633315  3.54757179  3.54866709
   7.18109224  5.22436318  5.40083969
   8.87623219  3.53402146  5.32000121
   8.85217590  5.32341655  3.55190479
   9.75553535  4.43238021  6.20759804
   7.97959196  4.42584128  4.43948964
   7.99580801  6.19758796  6.21639415
   9.74426595  6.20710063  4.43291200
  10.62899475  7.09353169  3.54401587
   0.00000113  8.86698199  5.31750085
   1.77279031  7.09278948  5.31612747
   1.76220342  8.87038751  3.54056404
   2.66839556  7.97707650  6.20168087
   0.88349990  7.97919244  4.42971128
   0.88442344  9.75538773  6.20340544
   2.63707483  9.77478311  4.43072353
   3.51646311  7.11524611  3.51646756
   3.52566024  8.89254714  5.30485555
   5.30484676  8.89254516  3.52566764
   6.31160809  8.11250809  6.31160494
   4.32339539  8.11250804  4.32339212
   4.43255035  9.75819832  6.20244988
   6.20244947  9.75820170  4.43255073
   7.09455810  7.12167654  3.54044199
   7.10933251  8.89254517  5.33015334
   8.86221447  7.09279005  5.31887778
   8.86323802  8.87052571  3.55088920
   9.75150592  7.97919360  6.20529267
   7.96660611  7.97707803  4.43332323
   7.99792622  9.77478577  6.20428075
   9.75058121  9.75538959  4.43159737
   0.00374070  0.00442015  7.09115828
   0.00384431  1.77538381  8.86362575
   1.77472682  0.00335201  8.86027336
   1.77373940  1.77620452  7.08946528
   2.65874077  0.88979560  9.74543824
   0.88956193  0.88979557  7.97625939
   0.88801619  2.66300011  9.74698401
   2.66154755  2.66329774  7.97345269
   3.54604573  0.00519189  7.08895450
   3.54553498  1.77620449  8.86126086
   5.32028462  0.01444336  8.87484498
   5.31984010  1.77261355  7.09379470
   6.20532775  0.89184203  9.75762356
   4.43207502  0.89076998  7.97868076
   4.43228167  2.65701595  9.75211523
   6.20993984  2.64730164  7.99182801
   7.09674530  0.01182883  7.09674619
   7.09541755  1.76984490  8.87409550
   8.86650369  0.00220709  8.86650246
   8.87409688  1.76984399  7.09541874
   9.75078614  0.88994429  9.75078491
   7.98292614  0.89029875  7.98292637
   7.97975364  2.66188591  9.75529505
   9.75529622  2.66188635  7.97975328
   0.00605379  3.54791831  7.09177786
   0.00868389  5.32097737  8.86552108
   1.77613347  3.54962568  8.85886676
   1.78282983  5.32341852  7.08309556
   2.66126312  4.43733029  9.74018288
   0.89481731  4.43733028  7.97373708
   0.88914710  6.20891465  9.74585314
   2.68237322  6.21736110  7.95262690
   3.54866726  3.54757580  7.08633308
   3.55190462  5.32341851  8.85217043
   5.31999840  3.53402476  8.87622810
   5.40082811  5.22436199  7.18109889
   6.20759708  4.43237925  9.75553409
   4.43948862  4.42584356  7.97959157
   4.43291035  6.20710079  9.74426222
   6.21639190  6.19758739  7.99581001
   7.11832594  3.51040603  7.11832899
   7.10964344  5.32033689  8.88245821
   8.87145447  3.54577662  8.87145395
   8.88246164  5.32033625  7.10964821
   9.75342839  4.43502033  9.75342636
   7.99027437  4.42987958  7.99027525
   7.98653495  6.20778292  9.76228383
   9.76228660  6.20778310  7.98653525
   0.00600955  7.09353133  7.09098482
   0.00502067  8.86585963  8.86336755
   1.77804768  7.09112008  8.85695254
   1.77176647  8.87052270  7.08410924
   2.66143159  7.98052824  9.74268367
   0.89231649  7.98052819  7.97356857
   0.88829106  9.75271139  9.74670912
   2.66165655  9.75214367  7.97334359
   3.54044381  7.12167036  7.09455640
   3.55089096  8.87052274  8.86323367
   5.31887251  7.09278947  8.86220991
   5.33014468  8.89254715  7.10934003
   6.20528888  7.97919248  9.75150028
   4.43331931  7.97707655  7.96660462
   4.43159479  9.75538782  9.75057669
   6.20427673  9.77478314  7.99792536
   7.11853260  7.11524609  7.11853716
   7.09443618  8.87038754  8.87279680
   8.87774807  7.09547452  8.87774706
   8.87279719  8.87038672  7.09443637
   9.75557448  7.98115504  9.75557286
   8.00036321  7.98160067  8.00036488
   7.97942748  9.75350838  9.75530811
   9.75531044  9.75350897  7.97942847
   5.31749078  6.46768878  5.31750942
 


--------------------------------------------------------------------------------------------------------


 use parallel FFT for orbitals z direction half grid
 k-point   1 :   0.0000 0.0000 0.0000  plane waves:   25343

 maximum and minimum number of plane-waves per node :      3174     3163

 maximum number of plane-waves:     25343
 maximum index in each direction: 
   IXMAX=   22   IYMAX=   22   IZMAX=   22
   IXMIN=  -22   IYMIN=  -22   IZMIN=    0


 parallel 3D FFT for wavefunctions:
    minimum data exchange during FFTs selected (reduces bandwidth)
 parallel 3D FFT for charge:
    minimum data exchange during FFTs selected (reduces bandwidth)


 FFT grid for exact exchange (Hartree Fock) 
  NGX = 70; NGY = 70; NGZ = 70

 use parallel FFT for orbitals z direction half grid
 
 Radii for the augmentation spheres in the non-local exchange
 for species   1 augmentation radius   0.874 (default was   0.699)
       energy cutoff for augmentation   2800.0
 for species   2 augmentation radius   1.442 (default was   1.153)
       energy cutoff for augmentation   2800.0

 real space projection operators:
  total allocation   :      12639.80 KBytes
  max/ min on nodes  :       1642.16       1456.52

 Maximum index for augmentation-charges in exchange          456
  SETUP_FOCK is finished

 total amount of memory used by VASP MPI-rank0   160544. kBytes
=======================================================================

   base      :      30000. kBytes
   nonl-proj :      12481. kBytes
   fftplans  :      13797. kBytes
   grid      :      32673. kBytes
   one-center:       1327. kBytes
   HF        :         73. kBytes
   nonlr-proj:       1952. kBytes
   wavefun   :      68241. kBytes
 
     INWAV:  cpu time    1.0516: real time    1.1426
 Broyden mixing: mesh for mixing (old mesh)
   NGX = 45   NGY = 45   NGZ = 45
  (NGX  =192   NGY  =192   NGZ  =192)
  gives a total of  91125 points

 charge density for first step will be calculated from the start-wavefunctions


--------------------------------------------------------------------------------------------------------


 Maximum index for augmentation-charges         1362 (set IRDMAX)


--------------------------------------------------------------------------------------------------------


 initial charge from wavefunction
 First call to EWALD:  gamma=   0.167
 Maximum number of real-space cells 3x 3x 3
 Maximum number of reciprocal cells 3x 3x 3

    FEWALD:  cpu time    0.0126: real time    0.0134


--------------------------------------- Iteration      1(   1)  ---------------------------------------


    POTLOK:  cpu time    1.0549: real time    1.0549
    SETDIJ:  cpu time    7.4621: real time    7.4653
    TRIAL :  cpu time  502.2410: real time  503.2554
    CORREC:  cpu time  510.5404: real time  513.5349
    CHARGE:  cpu time    0.5360: real time    0.5368
    --------------------------------------------
      LOOP:  cpu time 1021.8573: real time 1025.8718

 eigenvalue-minimisations  :     0
 total energy-change (2. order) :-0.2229573E+04  (-0.1810133E+01)
 number of electron     865.9999907 magnetization       2.0000000
 augmentation part       20.1217303 magnetization       0.8621051

 Free energy of the ion-electron system (eV)
  ---------------------------------------------------
  alpha Z        PSCENC =      3287.54862661
  Ewald energy   TEWEN  =    -38585.14887354
  -Hartree energ DENC   =     -2944.78697203
  -exchange      EXHF   =      1998.63728692
  -V(xc)+E(xc)   XCENC  =      2361.76589135
  PAW double counting   =     86692.25343693   -86800.25528956
  entropy T*S    EENTRO =        -0.00000000
  eigenvalues    EBANDS =      -498.68083373
  atomic energy  EATOM  =     32259.09391048
  ---------------------------------------------------
  free energy    TOTEN  =     -2229.57281657 eV

  energy without entropy =    -2229.57281657  energy(sigma->0) =    -2229.57281657
  exchange ACFDT corr.  =         0.00000000  see jH, gK, PRB 81, 115126


--------------------------------------------------------------------------------------------------------




--------------------------------------- Iteration      1(   2)  ---------------------------------------


    POTLOK:  cpu time    1.0492: real time    1.0509
    SETDIJ:  cpu time    7.4832: real time    7.4936
    TRIAL :  cpu time  493.0206: real time  495.4867
    CORREC:  cpu time  494.8674: real time  495.9856
    CHARGE:  cpu time    0.5312: real time    0.5321
    --------------------------------------------
      LOOP:  cpu time  996.9553: real time 1000.5525

 eigenvalue-minimisations  :     0
 total energy-change (2. order) :-0.1922529E+01  (-0.1054339E+01)
 number of electron     865.9999908 magnetization       2.0000000
 augmentation part       20.1689848 magnetization       1.0065520

 Free energy of the ion-electron system (eV)
  ---------------------------------------------------
  alpha Z        PSCENC =      3287.54862661
  Ewald energy   TEWEN  =    -38585.14887354
  -Hartree energ DENC   =     -2899.87518999
  -exchange      EXHF   =      1998.70158217
  -V(xc)+E(xc)   XCENC  =      2359.33884276
  PAW double counting   =     90387.21523032   -90490.94725509
  entropy T*S    EENTRO =        -0.00000000
  eigenvalues    EBANDS =      -547.42221961
  atomic energy  EATOM  =     32259.09391048
  ---------------------------------------------------
  free energy    TOTEN  =     -2231.49534589 eV

  energy without entropy =    -2231.49534589  energy(sigma->0) =    -2231.49534589
  exchange ACFDT corr.  =         0.00000000  see jH, gK, PRB 81, 115126


--------------------------------------------------------------------------------------------------------




[...]
 100       0.026    -0.024    -0.001     0.032     0.047     0.034
 101       0.040     0.006    -0.046     0.069    -0.021    -0.016
 102       0.031    -0.012    -0.019     0.010     0.004     0.005
 103       0.048    -0.024    -0.023     0.001    -0.007     0.001
 104       0.101    -0.077    -0.024     0.008     0.074    -0.001
 105      -0.012     0.025    -0.012     0.103     0.090     0.103
 106       0.125     0.012    -0.136     0.527     0.337     0.361
 107      -0.042     0.085    -0.042     0.000     0.054    -0.000
 108      -0.136     0.012     0.125     0.361     0.337     0.527
 109      -0.082     0.165    -0.082    -0.116     0.062    -0.116
 110      -0.082     0.165    -0.082     0.116     0.062     0.116
 111      -0.013     0.027    -0.013    -0.033    -0.014     0.033
 112       0.125     0.012    -0.136    -0.527     0.337    -0.361
 113       0.014     0.005    -0.019    -0.045     0.023    -0.027
 114       0.036    -0.023    -0.013    -0.014    -0.030     0.001
 115       0.031    -0.012    -0.019    -0.010     0.004    -0.005
 116       0.040     0.006    -0.046    -0.069    -0.021     0.016
 117       0.101    -0.077    -0.024    -0.008     0.074     0.001
 118       0.048    -0.024    -0.023    -0.001    -0.007    -0.001
 119       0.028    -0.016    -0.012    -0.002    -0.001    -0.004
 120       0.021    -0.006    -0.015     0.000     0.000     0.000
 121       0.066    -0.034    -0.032    -0.024    -0.008     0.012
 122       0.014    -0.003    -0.011    -0.016     0.013    -0.010
 123       0.079    -0.026    -0.053    -0.074    -0.019     0.017
 124       0.032    -0.013    -0.019    -0.009     0.006    -0.002
 125       0.014     0.004    -0.017    -0.013     0.002    -0.002
 126       0.001     0.019    -0.020    -0.022     0.007    -0.010
 127       0.020    -0.041     0.020    -0.038     0.108    -0.038
 128      -0.006     0.063    -0.056    -0.075    -0.003    -0.003
 129      -0.056     0.063    -0.006    -0.003    -0.003    -0.075
 130      -0.098     0.195    -0.098     0.166     0.058     0.166
 131      -0.098     0.195    -0.098    -0.166     0.058    -0.166
 132      -0.035     0.071    -0.035    -0.020    -0.013     0.020
 133      -0.035     0.071    -0.035     0.020    -0.013    -0.020
 134       0.015    -0.031     0.015     0.185    -0.237    -0.185
 135      -0.006     0.063    -0.056     0.075    -0.003     0.003
 136       0.066    -0.034    -0.032     0.024    -0.008    -0.012
 137       0.014     0.002    -0.016     0.038    -0.029    -0.031
 138       0.032    -0.013    -0.019     0.009     0.006     0.002
 139       0.079    -0.026    -0.053     0.074    -0.019    -0.017
 140       0.001     0.019    -0.020     0.022     0.007     0.010
 141       0.014     0.004    -0.017     0.013     0.002     0.002
 142       0.008     0.003    -0.011    -0.004     0.000     0.002
 143       0.002     0.001    -0.003    -0.002     0.002    -0.003
 144      -0.002     0.004    -0.002    -0.004    -0.003     0.004
 145       0.001     0.009    -0.010     0.004    -0.003    -0.004
 146      -0.006     0.004     0.002    -0.000    -0.001     0.001
 147       0.002     0.004    -0.006    -0.001    -0.001     0.000
 148       0.001    -0.002     0.001     0.001    -0.001    -0.001
 149      -0.004     0.007    -0.004     0.009    -0.005    -0.009
 150      -0.012     0.023    -0.012    -0.008    -0.005     0.008
 151      -0.010     0.009     0.001     0.004    -0.003    -0.004
 152      -0.012     0.011     0.001     0.000     0.001     0.007
 153      -0.018     0.029    -0.011     0.001     0.005    -0.008
 154      -0.013     0.006     0.007    -0.002    -0.000    -0.004
 155      -0.016     0.021    -0.005     0.001    -0.002     0.002
 156      -0.016     0.005     0.011     0.007    -0.006    -0.010
 157      -0.026     0.020     0.006    -0.007     0.004    -0.026
 158      -0.012     0.023    -0.012     0.010     0.006     0.010
 159      -0.012     0.010     0.002    -0.010     0.010    -0.014
 160      -0.001     0.003    -0.001     0.001     0.004     0.001
 161       0.002     0.010    -0.012    -0.014     0.010    -0.010
 162      -0.000     0.001    -0.000    -0.000     0.001    -0.000
 163      -0.005     0.010    -0.005    -0.000     0.004    -0.000
 164      -0.006     0.001     0.005    -0.004     0.003    -0.004
 165       0.005     0.001    -0.006    -0.004     0.003    -0.004
 166       0.014    -0.004    -0.010    -0.001     0.001    -0.006
 167       0.011    -0.014     0.003    -0.000     0.003    -0.004
 168       0.002    -0.005     0.002     0.006    -0.007    -0.006
 169       0.036    -0.023    -0.013     0.014    -0.030    -0.001
 170      -0.003    -0.011     0.014     0.005    -0.007    -0.005
 171       0.014    -0.011    -0.003     0.005    -0.007    -0.005
 172       0.007    -0.014     0.007     0.000    -0.000    -0.000
 173       0.018    -0.036     0.018    -0.002    -0.044     0.001
 174      -0.013     0.027    -0.013     0.033    -0.014    -0.033
 175      -0.013    -0.023     0.036     0.001    -0.030    -0.014
 176      -0.019     0.005     0.014    -0.027     0.023    -0.045
 177      -0.136     0.012     0.125    -0.361     0.336    -0.527
 178      -0.019    -0.012     0.031    -0.005     0.004    -0.010
 179      -0.046     0.006     0.040     0.016    -0.021    -0.069
 180      -0.023    -0.024     0.048    -0.001    -0.007    -0.001
 181      -0.024    -0.077     0.101     0.001     0.074    -0.008
 182      -0.012     0.025    -0.012    -0.103     0.090    -0.103
 183      -0.001    -0.024     0.026    -0.034     0.047    -0.032
 184       0.003    -0.005     0.003    -0.013     0.014    -0.013
 185       0.026    -0.024    -0.001    -0.032     0.047    -0.034
 186       0.005    -0.009     0.005    -0.002     0.003    -0.002
 187       0.004    -0.007     0.004    -0.017     0.025    -0.017
 188       0.002    -0.022     0.020     0.003     0.015     0.002
 189       0.020    -0.022     0.002     0.002     0.015     0.003
 190       0.028    -0.016    -0.012     0.002    -0.001     0.004
 191       0.006    -0.004    -0.002    -0.002    -0.001     0.005
 192       0.005    -0.011     0.005    -0.008    -0.016     0.008
 193       0.014     0.002    -0.016    -0.038    -0.029     0.031
 194      -0.004    -0.013     0.017    -0.005    -0.008     0.005
 195       0.017    -0.013    -0.004    -0.005    -0.008     0.005
 196       0.001    -0.003     0.001    -0.002    -0.002     0.002
 197      -0.003     0.007    -0.003    -0.012    -0.008     0.012
 198       0.015    -0.031     0.015    -0.185    -0.237     0.185
 199      -0.016     0.002     0.014    -0.031    -0.029     0.038
 200      -0.032    -0.034     0.066    -0.012    -0.008     0.024
 201      -0.056     0.063    -0.006     0.003    -0.003     0.075
 202      -0.019    -0.013     0.032     0.002     0.006     0.009
 203      -0.053    -0.026     0.079    -0.017    -0.019     0.074
 204      -0.017     0.004     0.014     0.002     0.002     0.013
 205      -0.020     0.019     0.001     0.010     0.007     0.022
 206       0.020    -0.041     0.020     0.038     0.108     0.038
 207      -0.011    -0.003     0.014     0.010     0.013     0.016
 208       0.005    -0.010     0.005     0.004     0.009     0.004
 209       0.014    -0.003    -0.011     0.016     0.013     0.010
 210       0.004    -0.009     0.004     0.001     0.000     0.001
 211       0.007    -0.014     0.007     0.004     0.015     0.004
 212      -0.005    -0.001     0.006     0.003     0.002     0.002
 213       0.006    -0.001    -0.005     0.002     0.002     0.003
 214      -5.195    10.391    -5.195     0.001     6.686    -0.001
 ---------------------------------------------------------------------


 Total hyperfine coupling parameters after diagonalization (MHz)
 (convention: |A_zz| > |A_xx| > |A_yy|)
 ----------------------------------------------------------------------
  ion      A_xx      A_yy      A_zz     asymmetry (A_yy - A_xx)/ A_zz 
 ----------------------------------------------------------------------
   1       0.005     0.004     0.006      -0.280
   2       0.005     0.001     0.010      -0.403
   3      -0.005     0.001     0.005       1.096
   4       0.005     0.001     0.010      -0.404
   5      -0.005     0.003     0.014       0.598
   6      -0.003    -0.002    -0.004      -0.280
   7      -0.006     0.001     0.011       0.579
   8      -0.006     0.001     0.011       0.578
   9       0.024     0.010     0.032      -0.404
  10       0.038     0.028     0.072      -0.131
  11       0.036     0.027     0.054      -0.177
  12       0.055     0.044     0.064      -0.174
  13      -0.015    -0.003     0.022       0.546
  14      -0.006     0.002    -0.022      -0.351
  15      -0.062    -0.008    -0.075      -0.728
  16       0.037     0.020     0.059      -0.272
  17       0.024     0.010     0.032      -0.404
  18      -0.010     0.000     0.012       0.892
  19      -0.004    -0.003     0.010       0.139
  20       0.005     0.001     0.010      -0.403
  21      -0.001     0.001    -0.009      -0.225
  22      -0.001     0.001    -0.009      -0.225
  23      -0.018     0.008    -0.019      -1.377
  24       0.001    -0.001    -0.004       0.555
  25      -0.006     0.003     0.007       1.125
  26       0.033     0.016     0.042      -0.410
  27       0.011     0.007     0.050      -0.073
  28       0.033     0.016     0.042      -0.410
  29      -0.054     0.006    -0.056      -1.067
  30       0.007     0.001    -0.011       0.613
  31      -0.017    -0.001     0.034       0.468
  32      -0.017    -0.001     0.034       0.468
  33      -0.008     0.004     0.019       0.637
  34       0.085     0.069     0.200      -0.081
  35       0.111     0.103     0.211      -0.038
  36      -0.007    -0.006     0.049       0.010
  37      -0.124     0.022    -0.127      -1.154
  38       0.026    -0.020    -0.029       1.588
  39      -0.181     0.011    -0.203      -0.950
  40      -0.036    -0.035     0.037       0.038
  41      -0.008     0.004     0.019       0.637
  42       0.020     0.010     0.093      -0.102
  43       0.011    -0.007    -0.011       1.566
  44       0.033     0.016     0.042      -0.410
  45       0.014    -0.009    -0.018       1.295
  46       0.014    -0.009    -0.018       1.296
  47      -0.097    -0.008    -0.106      -0.835
  48      -0.005    -0.005    -0.027      -0.020
  49      -0.018    -0.016    -0.027      -0.086
  50       0.019     0.010     0.024      -0.377
  51      -0.030    -0.012    -0.038      -0.491
  52       0.019     0.010     0.024      -0.377
  53      -0.086    -0.055    -0.093      -0.330
  54       0.004     0.003    -0.011       0.086
  55      -0.006     0.002    -0.012      -0.685
  56      -0.006     0.002    -0.012      -0.685
  57       0.006    -0.004     0.043      -0.229
  58       0.021     0.015     0.063      -0.091
  59       0.054     0.033     0.152      -0.134
  60      -0.010    -0.002     0.026       0.328
  61       0.162     0.148     0.337      -0.043
  62      -0.028     0.021    -0.034      -1.476
  63       0.009     0.000     0.058      -0.142
  64       0.017     0.005     0.045      -0.272
  65       0.006    -0.004     0.043      -0.230
  66       0.136     0.126     0.232      -0.043
  67      -0.002     0.001     0.037       0.077
  68       0.019     0.010     0.024      -0.377
  69      -0.020     0.007    -0.029      -0.917
  70      -0.020     0.007    -0.029      -0.917
  71      -0.010    -0.010     0.024       0.004
  72      -0.003     0.001    -0.007      -0.613
  73       0.023     0.010     0.032      -0.404
  74       0.056     0.044     0.064      -0.174
  75       0.036     0.027     0.054      -0.177
  76       0.038     0.028     0.072      -0.131
  77      -0.015    -0.003     0.022       0.546
  78      -0.006     0.002    -0.022      -0.351
  79       0.037     0.020     0.059      -0.272
  80      -0.062    -0.008    -0.075      -0.728
  81      -0.014    -0.009     0.031       0.185
  82      -0.016    -0.004     0.036       0.332
  83       0.011     0.005     0.090      -0.075
  84      -0.016    -0.004     0.036       0.332
  85      -0.015    -0.015     0.041       0.007
  86      -0.015    -0.015     0.041       0.007
  87      -0.032    -0.028     0.059       0.072
  88      -0.032    -0.028     0.059       0.072
  89      -0.018    -0.012     0.026       0.258
  90      -0.016    -0.004     0.036       0.332
  91       0.036     0.027     0.054      -0.177
  92      -0.010     0.000     0.012       0.892
  93      -0.006     0.002    -0.022      -0.351
  94      -0.015    -0.003     0.022       0.546
  95      -0.062    -0.008    -0.075      -0.728
  96       0.037     0.020     0.059      -0.272
  97      -0.008     0.004     0.019       0.637
  98      -0.007    -0.006     0.049       0.010
  99       0.111     0.103     0.211      -0.038
 100       0.085     0.069     0.200      -0.081
 101      -0.124     0.022    -0.127      -1.155
 102       0.026    -0.020    -0.029       1.588
 103      -0.036    -0.035     0.037       0.038
 104      -0.181     0.011    -0.203      -0.950
 105       0.367     0.362     0.662      -0.008
 106       0.968     0.856     2.180      -0.051
 107       0.058    -0.049     0.132      -0.817
 108       0.968     0.856     2.180      -0.051
 109      -0.437    -0.060    -0.464      -0.812
 110      -0.437    -0.060    -0.464      -0.812
 111       0.110     0.103     0.200      -0.034
 112       0.968     0.856     2.180      -0.051
 113       0.111     0.103     0.211      -0.038
 114       0.020     0.010     0.093      -0.102
 115       0.026    -0.020    -0.029       1.588
 116      -0.124     0.022    -0.127      -1.154
 117      -0.181     0.011    -0.203      -0.950
 118      -0.036    -0.035     0.037       0.038
 119       0.006    -0.004     0.043      -0.230
 120      -0.010    -0.002     0.026       0.327
 121       0.053     0.033     0.152      -0.134
 122       0.021     0.015     0.063      -0.091
 123       0.162     0.148     0.337      -0.043
 124      -0.028     0.021    -0.034      -1.475
 125       0.017     0.005     0.045      -0.272
 126       0.009     0.000     0.058      -0.142
 127       0.114    -0.086    -0.118       1.689
 128      -0.022    -0.013     0.149       0.063
 129      -0.022    -0.013     0.149       0.063
 130      -0.041    -0.012     0.483       0.061
 131      -0.041    -0.012     0.483       0.061
 132      -0.022    -0.004     0.105       0.172
 133      -0.022    -0.004     0.105       0.172
 134       0.536     0.501     1.131      -0.031
 135      -0.022    -0.013     0.149       0.063
 136       0.053     0.033     0.152      -0.134
 137       0.136     0.126     0.232      -0.043
 138      -0.028     0.021    -0.034      -1.475
 139       0.162     0.148     0.337      -0.043
 140       0.009     0.000     0.058      -0.142
 141       0.017     0.005     0.045      -0.272
 142       0.024     0.010     0.032      -0.404
 143       0.005     0.001     0.010      -0.403
 144      -0.004    -0.003     0.010       0.139
 145      -0.010     0.000     0.012       0.891
 146      -0.001     0.001    -0.009      -0.225
 147      -0.001     0.001    -0.009      -0.225
 148       0.001    -0.001    -0.004       0.557
 149      -0.018     0.008    -0.019      -1.377
 150      -0.018    -0.012     0.026       0.258
 151      -0.010     0.000     0.012       0.892
 152       0.036     0.027     0.054      -0.177
 153      -0.016    -0.004     0.036       0.332
 154      -0.006     0.002    -0.022      -0.351
 155      -0.015    -0.003     0.022       0.546
 156       0.037     0.020     0.059      -0.272
 157      -0.062    -0.008    -0.075      -0.728
 158      -0.014    -0.009     0.031       0.185
 159       0.038     0.028     0.072      -0.131
 160      -0.005     0.001     0.005       1.100
 161       0.038     0.028     0.072      -0.131
 162      -0.003    -0.002    -0.004      -0.280
 163      -0.005     0.003     0.014       0.597
 164      -0.006     0.001     0.011       0.578
 165      -0.006     0.001     0.011       0.579
 166      -0.008     0.004     0.019       0.637
 167       0.033     0.016     0.042      -0.410
 168       0.011    -0.007    -0.011       1.566
 169       0.020     0.010     0.093      -0.102
 170       0.014    -0.009    -0.018       1.296
 171       0.014    -0.009    -0.018       1.296
 172      -0.005    -0.005    -0.027      -0.019
 173      -0.097    -0.008    -0.106      -0.835
 174       0.110     0.103     0.200      -0.034
 175       0.020     0.010     0.093      -0.102
 176       0.111     0.103     0.211      -0.038
 177       0.968     0.856     2.180      -0.051
 178       0.026    -0.020    -0.029       1.589
 179      -0.124     0.022    -0.127      -1.155
 180      -0.036    -0.035     0.037       0.038
 181      -0.181     0.011    -0.203      -0.950
 182       0.367     0.362     0.662      -0.008
 183       0.085     0.069     0.200      -0.081
 184       0.011     0.007     0.050      -0.073
 185       0.085     0.069     0.200      -0.081
 186       0.007     0.001    -0.011       0.613
 187      -0.054     0.006    -0.056      -1.067
 188      -0.017    -0.001     0.034       0.468
 189      -0.017    -0.001     0.034       0.468
 190       0.006    -0.004     0.043      -0.230
 191       0.019     0.010     0.024      -0.377
 192      -0.002     0.001     0.037       0.077
 193       0.135     0.126     0.232      -0.043
 194      -0.020     0.007    -0.029      -0.917
 195      -0.020     0.007    -0.029      -0.917
 196      -0.003     0.001    -0.007      -0.613
 197      -0.010    -0.010     0.024       0.004
 198       0.535     0.500     1.129      -0.031
 199       0.135     0.125     0.232      -0.043
 200       0.053     0.033     0.152      -0.134
 201      -0.022    -0.013     0.149       0.063
 202      -0.028     0.021    -0.034      -1.476
 203       0.162     0.148     0.337      -0.043
 204       0.017     0.005     0.045      -0.272
 205       0.009     0.000     0.058      -0.142
 206       0.114    -0.086    -0.118       1.689
 207       0.021     0.015     0.063      -0.091
 208      -0.030    -0.012    -0.038      -0.491
 209       0.021     0.015     0.063      -0.091
 210       0.004     0.003    -0.011       0.086
 211      -0.086    -0.055    -0.093      -0.330
 212      -0.006     0.002    -0.012      -0.686
 213      -0.006     0.002    -0.012      -0.685
 214     112.532    99.161   121.433      -0.110
 ---------------------------------------------------------------------



--------------------------------------------------------------------------------------------------------


 writing wavefunctions
     LOOP+:  cpu time27275.3580: real time27367.9319
    4ORBIT:  cpu time    0.0000: real time    0.0000

 total amount of memory used by VASP MPI-rank0   257600. kBytes
=======================================================================

   base      :      30000. kBytes
   nonl-proj :      12481. kBytes
   fftplans  :      13797. kBytes
   grid      :      32673. kBytes
   one-center:       1327. kBytes
   HF        :         73. kBytes
   nonlr-proj:       1952. kBytes
   wavefun   :      68241. kBytes
   fock_wrk  :      97056. kBytes
 
  
  
 General timing and accounting informations for this job:
 ========================================================
  
                  Total CPU time used (sec):    27324.467
                            User time (sec):    27296.122
                          System time (sec):       28.345
                         Elapsed time (sec):    27419.072
  
                   Maximum memory used (kb):     1979496.
                   Average memory used (kb):          N/A
  
                          Minor page faults:      4026693
                          Major page faults:            2
                 Voluntary context switches:        16027
