 vasp.6.2.1 16May21 (build Sep 27 2021 21:11:04) gamma-only                     
  
 executed on             LinuxIFC date 2023.06.23  23:46:59
 running   24 mpi-ranks, with    1 threads/rank
 distrk:  each k-point on   24 cores,    1 groups
 distr:  one band on NCORE=   8 cores,    3 groups


--------------------------------------------------------------------------------------------------------


 INCAR:
   GGA = PE
   ISTART = 1
   ISPIN = 2
   ENCUT = 370
   ENAUG = 740
   EDIFF = 1E-6
   IBRION = -1
   POTIM = 0.2
   NSW = 0
   EDIFFG = -1E-2
   ISMEAR = -2
   SIGMA = 0.01
   ISIF = 1
   LREAL = .FALSE.
   ISYM = 0
   NELECT = 867
   NUPDOWN = 1
   FERWE = 431*1.00 1*1.00 1*1.00 1*0.00 1*1.00 1*0.00 1000*0.00
   FERDO = 431*1.00 1*1.00 1*1.00 1*0.00 1*0.00 1*0.00 1000*0.00
   EFIELD = 0.06
   IDIPOL = 3
   LDIPOL = .TRUE.
   DIPOL = 0.5 0.6 0.5
   PREC = Accurate
   NCORE = 8
   NELM = 150
   NWRITE = 2
   SYMPREC = 1.0e-8

 POTCAR:    PAW_PBE C 08Apr2002                   
 POTCAR:    PAW_PBE Pa 07Sep2000                  
 -----------------------------------------------------------------------------
|                                                                             |
|           W    W    AA    RRRRR   N    N  II  N    N   GGGG   !!!           |
|           W    W   A  A   R    R  NN   N  II  NN   N  G    G  !!!           |
|           W    W  A    A  R    R  N N  N  II  N N  N  G       !!!           |
|           W WW W  AAAAAA  RRRRR   N  N N  II  N  N N  G  GGG   !            |
|           WW  WW  A    A  R   R   N   NN  II  N   NN  G    G                |
|           W    W  A    A  R    R  N    N  II  N    N   GGGG   !!!           |
|                                                                             |
|     You use a magnetic or noncollinear calculation, but did not specify     |
|     the initial magnetic moment with the MAGMOM tag. Note that a            |
|     default of 4.673e-3 will be used for all atoms. This ferromagnetic      |
|     setup may break the symmetry of the crystal, in particular it may       |
|     rule out finding an antiferromagnetic solution. Thence, we              |
|     recommend setting the initial magnetic moment manually or verifying     |
|     carefully that this magnetic setup is desired.                          |
|                                                                             |
 -----------------------------------------------------------------------------

 POTCAR:    PAW_PBE C 08Apr2002                   
   SHA256 =  253f7b50bb8d59471dbedb8285d89021f4a42ed1a2c5d38a03a736e69125dd95 C/POTCAR              
   COPYR  = (c) Copyright 08Apr2002 Georg Kresse                                                    
   COPYR  = This file is part of the software VASP. Any use, copying, and all other rights are regul
   COPYR  = If you do not have a valid VASP license, you may not use, copy or distribute this file. 
   VRHFIN =C: s2p2                                                                                  
   LEXCH  = PE                                                                                      
   EATOM  =   147.1560 eV,   10.8157 Ry                                                             
                                                                                                    
   TITEL  = PAW_PBE C 08Apr2002                                                                     
   LULTRA =        F    use ultrasoft PP ?                                                          
   IUNSCR =        1    unscreen: 0-lin 1-nonlin 2-no                                               
   RPACOR =    1.200    partial core radius                                                         
   POMASS =   12.011; ZVAL   =    4.000    mass and valenz                                          
   RCORE  =    1.500    outmost cutoff radius                                                       
   RWIGS  =    1.630; RWIGS  =    0.863    wigner-seitz radius (au A)                               
   ENMAX  =  400.000; ENMIN  =  300.000 eV                                                          
   ICORE  =        2    local potential                                                             
   LCOR   =        T    correct aug charges                                                         
   LPAW   =        T    paw PP                                                                      
   EAUG   =  644.873                                                                                
   DEXC   =    0.000                                                                                
   RMAX   =    1.529    core radius for proj-oper                                                   
   RAUG   =    1.300    factor for augmentation sphere                                              
   RDEP   =    1.501    radius for radial grids                                                     
   RDEPT  =    1.300    core radius for aug-charge                                                  
                                                                                                    
   Atomic configuration                                                                             
    4 entries                                                                                       
     n  l   j            E        occ.                                                              
     1  0  0.50      -273.3789   2.0000                                                             
     2  0  0.50       -13.7508   2.0000                                                             
     2  1  0.50        -5.2854   2.0000                                                             
     3  2  1.50        -5.4423   0.0000                                                             
   Description                                                                                      
     l       E           TYP  RCUT    TYP  RCUT                                                     
     0    -13.7508458     23  1.200                                                                 
     0     -8.2022199     23  1.200                                                                 
     1     -5.2854383     23  1.500                                                                 
     1     34.0145650     23  1.500                                                                 
     2     -5.4423304      7  1.500                                                                 
  local pseudopotential read in
  partial core-charges read in
  partial kinetic energy density read in
  atomic valenz-charges read in
  non local Contribution for L=           0  read in
    real space projection operators read in
  non local Contribution for L=           0  read in
    real space projection operators read in
  non local Contribution for L=           1  read in
    real space projection operators read in
  non local Contribution for L=           1  read in
    real space projection operators read in
    PAW grid and wavefunctions read in
 
   number of l-projection  operators is LMAX  =           4
   number of lm-projection operators is LMMAX =           8
 
 POTCAR:    PAW_PBE Pa 07Sep2000                  
   SHA256 =  04e32654b760de29c7f02015f2c4b9b92aeb120699210996a29249ba80bfa323 Pa/POTCAR             
   COPYR  = (c) Copyright 07Sep2000 Georg Kresse                                                    
   COPYR  = This file is part of the software VASP. Any use, copying, and all other rights are regul
   COPYR  = If you do not have a valid VASP license, you may not use, copy or distribute this file. 
   VRHFIN =Pa:  [Xe,5d,4f]                                                                          
   LEXCH  = PE                                                                                      
   EATOM  =  1180.0855 eV,   86.7338 Ry                                                             
                                                                                                    
   TITEL  = PAW_PBE Pa 07Sep2000                                                                    
   LULTRA =        F    use ultrasoft PP ?                                                          
   IUNSCR =        1    unscreen: 0-lin 1-nonlin 2-no                                               
   RPACOR =    2.200    partial core radius                                                         
   POMASS =  229.000; ZVAL   =   13.000    mass and valenz                                          
   RCORE  =    2.800    outmost cutoff radius                                                       
   RWIGS  =    2.900; RWIGS  =    1.535    wigner-seitz radius (au A)                               
   ENMAX  =  252.193; ENMIN  =  189.145 eV                                                          
   RCLOC  =    1.808    cutoff for local pot                                                        
   LCOR   =        T    correct aug charges                                                         
   LPAW   =        T    paw PP                                                                      
   EAUG   =  536.979                                                                                
   DEXC   =    0.000                                                                                
   RMAX   =    2.858    core radius for proj-oper                                                   
   RAUG   =    1.300    factor for augmentation sphere                                              
   RDEP   =    2.921    radius for radial grids                                                     
   RDEPT  =    2.247    core radius for aug-charge                                                  
                                                                                                    
   Atomic configuration                                                                             
   18 entries                                                                                       
     n  l   j            E        occ.                                                              
     1  0  0.50   -112985.5190   2.0000                                                             
     2  0  0.50    -21035.6541   2.0000                                                             
     2  1  1.50    -17527.8639   6.0000                                                             
     3  0  0.50     -5294.0126   2.0000                                                             
     3  1  1.50     -4318.2192   6.0000                                                             
     3  2  2.50     -3460.9455  10.0000                                                             
     4  0  0.50     -1342.3530   2.0000                                                             
     4  1  1.50     -1023.6497   6.0000                                                             
     4  2  2.50      -699.1199  10.0000                                                             
     4  3  3.50      -353.3721  14.0000                                                             
     5  0  0.50      -298.9475   2.0000                                                             
     5  1  1.50      -201.1573   6.0000                                                             
     5  2  2.50       -97.1791  10.0000                                                             
     6  0  0.50       -48.3074   2.0000                                                             
     7  0  0.50        -4.5039   2.0000                                                             
     6  1  1.50       -24.3672   6.0000                                                             
     6  2  1.50        -3.1149   2.0000                                                             
     5  3  2.50        -5.1513   1.0000                                                             
   Description                                                                                      
     l       E           TYP  RCUT    TYP  RCUT                                                     
     0    -48.3074378     23  2.800                                                                 
     0     -4.5039177     23  2.800                                                                 
     1    -24.3672020     23  2.500                                                                 
     1    -25.7277846     23  2.500                                                                 
     2     -3.1148861     23  2.500                                                                 
     2      1.7959667     23  2.500                                                                 
     3     -5.1512774     23  2.800                                                                 
     3     -6.5118600     23  2.800                                                                 
  local pseudopotential read in
  partial core-charges read in
  partial kinetic energy density read in
  atomic valenz-charges read in
  non local Contribution for L=           0  read in
    real space projection operators read in
  non local Contribution for L=           0  read in
    real space projection operators read in
  non local Contribution for L=           1  read in
    real space projection operators read in
  non local Contribution for L=           1  read in
    real space projection operators read in
  non local Contribution for L=           2  read in
    real space projection operators read in
  non local Contribution for L=           2  read in
    real space projection operators read in
  non local Contribution for L=           3  read in
    real space projection operators read in
  non local Contribution for L=           3  read in
    real space projection operators read in
    PAW grid and wavefunctions read in
 
   number of l-projection  operators is LMAX  =           8
   number of lm-projection operators is LMMAX =          32
 
 -----------------------------------------------------------------------------
|                                                                             |
|               ----> ADVICE to this user running VASP <----                  |
|                                                                             |
|     You have a (more or less) 'large supercell' and for larger cells it     |
|     might be more efficient to use real-space projection operators.         |
|     Therefore, try LREAL= Auto in the INCAR file.                           |
|     Mind: For very accurate calculation, you might also keep the            |
|     reciprocal projection scheme (i.e. LREAL=.FALSE.).                      |
|                                                                             |
 -----------------------------------------------------------------------------

  PAW_PBE C 08Apr2002                   :
 energy of atom  1       EATOM= -147.1560
 kinetic energy error for atom=    0.0545 (will be added to EATOM!!)
  PAW_PBE Pa 07Sep2000                  :
 energy of atom  2       EATOM=-1180.0855
 kinetic energy error for atom=    0.0045 (will be added to EATOM!!)
 
 
 POSCAR: prv2
  positions in direct lattice
  velocities in cartesian coordinates
 exchange correlation table for  LEXCH =        8
   RHO(1)=    0.500       N(1)  =     2000
   RHO(2)=  100.500       N(2)  =     4000
 


--------------------------------------------------------------------------------------------------------


 ion  position               nearest neighbor table
   1  1.000  0.000  1.000-   6 1.53 162 1.53 196 1.54  72 1.54
   2  1.000  0.167  0.167-   7 1.53  24 1.53  21 1.53   6 1.54
   3  0.166  0.000  0.166-   5 1.53   6 1.53  55 1.54  56 1.54
   4  0.167  0.167  1.000-   8 1.53 148 1.53 146 1.53   6 1.54
   5  0.249  0.084  0.249-  81 1.53   3 1.53  10 1.54  76 1.54
   6  0.083  0.084  0.083-   1 1.53   3 1.53   4 1.54   2 1.54
   7  0.083  0.250  0.250-   2 1.53  76 1.53  97 1.54  27 1.54
   8  0.250  0.250  0.083-   4 1.53  10 1.53  33 1.54  27 1.54
   9  0.333  0.000  1.000- 204 1.53  14 1.53 146 1.53  56 1.53
  10  0.333  0.166  0.165-  15 1.52  14 1.53   8 1.53   5 1.54
  11  0.500  0.002  0.165-  63 1.52  14 1.52  64 1.54  13 1.54
  12  0.500  0.167  1.000- 154 1.53  14 1.53 156 1.53  16 1.53
  13  0.583  0.084  0.250-  18 1.53  84 1.53  89 1.54  11 1.54
  14  0.416  0.084  0.082-  11 1.52  12 1.53  10 1.53   9 1.53
  15  0.416  0.248  0.248-  10 1.52 105 1.53  84 1.54  35 1.54
  16  0.583  0.250  0.083-  35 1.52  12 1.53  41 1.53  18 1.53
  17  0.667  0.000  0.000-  64 1.53 154 1.53  22 1.53 212 1.53
  18  0.667  0.167  0.167-  13 1.53  22 1.53  16 1.53  23 1.54
  19  0.833  0.000  0.167-  21 1.53  22 1.53  71 1.53  72 1.54
  20  0.833  0.167  0.000- 164 1.53  24 1.53  22 1.53 162 1.54
  21  0.916  0.084  0.250-  19 1.53  73 1.53  92 1.53   2 1.53
  22  0.750  0.084  0.084-  19 1.53  17 1.53  18 1.53  20 1.53
  23  0.750  0.250  0.250- 111 1.53  43 1.53  18 1.54  92 1.54
  24  0.916  0.250  0.084-  20 1.53   2 1.53  25 1.54  43 1.54
  25  1.000  0.334  1.000-  30 1.53 186 1.53  24 1.54 148 1.54
  26  0.999  0.500  0.166-  31 1.53  48 1.53  45 1.54  30 1.54
  27  0.166  0.333  0.166-  29 1.53  30 1.53   7 1.54   8 1.54
  28  0.166  0.500  0.999-  32 1.53 172 1.53 170 1.54  30 1.54
  29  0.249  0.416  0.249-  27 1.53  34 1.54 100 1.54 105 1.54
  30  0.083  0.417  0.083-  25 1.53  27 1.53  28 1.54  26 1.54
  31  0.082  0.584  0.249- 100 1.53  26 1.53 119 1.54  51 1.54
  32  0.249  0.584  0.082-  34 1.53  28 1.53  57 1.54  51 1.54
  33  0.333  0.334  0.999-  38 1.53 156 1.53   8 1.54 170 1.54
  34  0.331  0.500  0.165-  32 1.53  39 1.53  29 1.54  38 1.54
  35  0.500  0.332  0.165-  16 1.52  37 1.53  15 1.54  38 1.54
  36  0.500  0.500  1.000- 178 1.53  38 1.53 180 1.54  40 1.54
  37  0.582  0.415  0.249- 108 1.48  35 1.53  42 1.54 111 1.54
  38  0.416  0.417  0.083-  33 1.53  36 1.53  34 1.54  35 1.54
  39  0.415  0.582  0.248- 108 1.51  34 1.53  59 1.54 127 1.56 214 2.84
  40  0.583  0.584  0.084-  59 1.53  42 1.53  65 1.54  36 1.54
  41  0.667  0.334  0.001- 178 1.53  16 1.53 164 1.54  46 1.54
  42  0.666  0.500  0.168-  40 1.53  37 1.54  46 1.54  47 1.54
  43  0.833  0.334  0.167-  45 1.53  46 1.53  23 1.53  24 1.54
  44  0.834  0.500  0.001- 188 1.53  48 1.53  46 1.54 186 1.54
  45  0.916  0.417  0.250-  43 1.53  97 1.54  26 1.54 114 1.54
  46  0.750  0.417  0.084-  43 1.53  41 1.54  44 1.54  42 1.54
  47  0.747  0.585  0.253- 134 1.52  42 1.54 114 1.54  67 1.55
  48  0.916  0.584  0.084-  26 1.53  44 1.53  67 1.54  49 1.54
  49  1.000  0.667  1.000- 210 1.53  54 1.53  48 1.54 172 1.54
  50  0.999  0.834  0.167-  72 1.53  55 1.53  54 1.54  69 1.54
  51  0.165  0.667  0.165-  54 1.52  53 1.53  32 1.54  31 1.54
  52  0.167  0.834  0.999- 196 1.53  56 1.53  54 1.54 194 1.54
  53  0.248  0.751  0.248- 127 1.52  51 1.53  58 1.54 122 1.54
  54  0.083  0.750  0.083-  51 1.52  49 1.53  50 1.54  52 1.54
  55  0.083  0.917  0.250- 122 1.53  50 1.53  73 1.53   3 1.54
  56  0.250  0.917  0.083-  58 1.53  52 1.53   9 1.53   3 1.54
  57  0.333  0.667  0.999- 194 1.53 180 1.54  32 1.54  62 1.54
  58  0.333  0.834  0.166-  56 1.53  62 1.54  53 1.54  63 1.54
  59  0.500  0.667  0.167-  40 1.53  62 1.54  39 1.54  61 1.54
  60  0.500  0.834  1.000- 204 1.53  64 1.53 202 1.54  62 1.54
  61  0.583  0.751  0.251- 134 1.51  66 1.54  59 1.54 129 1.55
  62  0.417  0.750  0.083-  60 1.54  58 1.54  59 1.54  57 1.54
  63  0.417  0.920  0.248-  11 1.52 129 1.52  81 1.54  58 1.54
  64  0.583  0.917  0.083-  17 1.53  66 1.53  60 1.53  11 1.54
  65  0.667  0.667  0.001-  70 1.53  40 1.54 188 1.54 202 1.54
  66  0.666  0.834  0.166-  64 1.53  70 1.54  71 1.54  61 1.54
  67  0.833  0.667  0.167-  70 1.54  69 1.54  48 1.54  47 1.55
  68  0.833  0.834  0.001-  72 1.53 212 1.53 210 1.54  70 1.54
  69  0.916  0.750  0.250- 119 1.53  67 1.54 137 1.54  50 1.54
  70  0.750  0.750  0.084-  65 1.53  67 1.54  66 1.54  68 1.54
  71  0.750  0.917  0.250-  89 1.53  19 1.53 137 1.54  66 1.54
  72  0.916  0.917  0.084-  50 1.53  68 1.53  19 1.54   1 1.54
  73  1.000  0.000  0.333- 141 1.53  78 1.53  21 1.53  55 1.53
  74  1.000  0.167  0.500-  93 1.53  78 1.53  96 1.53  79 1.53
  75  0.165  0.002  0.500- 126 1.52  78 1.52 125 1.54  77 1.54
  76  0.165  0.166  0.333-  80 1.52  78 1.53   7 1.53   5 1.54
  77  0.250  0.084  0.583- 145 1.53  82 1.53 150 1.54  75 1.54
  78  0.082  0.084  0.416-  75 1.52  74 1.53  76 1.53  73 1.53
  79  0.083  0.250  0.583-  99 1.52  74 1.53 166 1.53 145 1.53
  80  0.248  0.248  0.416-  76 1.52 105 1.53  82 1.54  99 1.54
  81  0.333  0.001  0.333-   5 1.53  86 1.54 126 1.54  63 1.54
  82  0.333  0.167  0.500-  77 1.53  86 1.53  80 1.54  87 1.54
  83  0.500  0.001  0.500- 132 1.53 133 1.53  86 1.54  85 1.54
  84  0.500  0.167  0.333-  13 1.53  86 1.53  15 1.54  88 1.54
  85  0.584  0.084  0.584- 153 1.53  90 1.53 158 1.54  83 1.54
  86  0.416  0.084  0.416-  84 1.53  82 1.53  81 1.54  83 1.54
  87  0.417  0.250  0.583- 107 1.53 174 1.53 153 1.54  82 1.54
  88  0.583  0.250  0.417- 107 1.53 111 1.53  90 1.54  84 1.54
  89  0.667  0.001  0.333- 133 1.53  71 1.53  13 1.54  94 1.54
  90  0.667  0.167  0.500-  94 1.53  85 1.53  95 1.54  88 1.54
  91  0.835  0.002  0.500- 140 1.52  93 1.52 141 1.54  94 1.54
  92  0.833  0.167  0.333-  94 1.53  21 1.53  96 1.53  23 1.54
  93  0.918  0.084  0.584-  91 1.52  74 1.53 161 1.53 142 1.53
  94  0.750  0.084  0.417-  92 1.53  90 1.53  89 1.54  91 1.54
  95  0.752  0.248  0.584- 161 1.52 182 1.53  90 1.54 113 1.54
  96  0.917  0.250  0.417- 113 1.52  74 1.53  97 1.53  92 1.53
  97  0.999  0.334  0.333- 102 1.53  96 1.53   7 1.54  45 1.54
  98  1.000  0.500  0.500- 115 1.53 102 1.53 118 1.54 103 1.54
  99  0.165  0.332  0.500-  79 1.52 101 1.53  80 1.54 102 1.54
 100  0.165  0.500  0.331-  31 1.53 104 1.53  29 1.54 102 1.54
 101  0.249  0.415  0.582- 106 1.48  99 1.53 169 1.54 174 1.54
 102  0.083  0.417  0.416-  97 1.53  98 1.53 100 1.54  99 1.54
 103  0.084  0.584  0.583- 121 1.53 169 1.53 190 1.54  98 1.54
 104  0.248  0.582  0.415- 106 1.51 100 1.53 121 1.54 127 1.56 214 2.84
 105  0.330  0.329  0.330- 110 1.49  80 1.53  15 1.53  29 1.54
 106  0.324  0.490  0.492- 101 1.48 104 1.51 110 1.53 214 2.24
 107  0.500  0.332  0.500-  87 1.53  88 1.53 109 1.57 110 1.57
 108  0.492  0.490  0.324-  37 1.48  39 1.51 110 1.53 214 2.24
 109  0.589  0.410  0.589- 182 1.49 177 1.53 112 1.53 107 1.57 214 2.47
 110  0.411  0.410  0.411- 105 1.49 106 1.53 108 1.53 107 1.57 214 2.47
 111  0.666  0.334  0.334-  88 1.53  23 1.53 116 1.54  37 1.54
 112  0.676  0.490  0.508- 116 1.48 117 1.51 109 1.53 214 2.24
 113  0.835  0.332  0.500-  96 1.52 116 1.53  95 1.54 115 1.54
 114  0.832  0.500  0.334- 118 1.53 116 1.54  45 1.54  47 1.54
 115  0.917  0.417  0.584- 166 1.53  98 1.53 185 1.54 113 1.54
 116  0.751  0.415  0.418- 112 1.48 113 1.53 114 1.54 111 1.54
 117  0.752  0.582  0.585- 112 1.51 185 1.53 136 1.54 206 1.56 214 2.84
 118  0.916  0.584  0.417- 136 1.53 114 1.53 119 1.54  98 1.54
 119  0.999  0.667  0.333-  69 1.53 118 1.54  31 1.54 124 1.54
 120  1.000  0.834  0.500- 141 1.53 125 1.53 138 1.54 124 1.54
 121  0.167  0.667  0.500- 103 1.53 124 1.54 104 1.54 123 1.54
 122  0.166  0.834  0.333-  55 1.53 124 1.54  53 1.54 126 1.54
 123  0.251  0.751  0.583- 198 1.51 193 1.54 121 1.54 128 1.55
 124  0.083  0.750  0.417- 120 1.54 122 1.54 121 1.54 119 1.54
 125  0.083  0.917  0.583- 142 1.53 193 1.53 120 1.53  75 1.54
 126  0.248  0.920  0.417-  75 1.52 128 1.52  81 1.54 122 1.54
 127  0.331  0.669  0.331-  53 1.52 131 1.53  39 1.56 104 1.56 214 2.63
 128  0.331  0.837  0.499- 131 1.48 126 1.52 132 1.54 123 1.55
 129  0.499  0.837  0.331- 131 1.48  63 1.52 133 1.54  61 1.55
 130  0.593  0.765  0.593- 201 1.48 135 1.48 206 1.53 214 2.20
 131  0.407  0.765  0.407- 129 1.48 128 1.48 127 1.53 214 2.20
 132  0.417  0.918  0.583- 150 1.53  83 1.53 201 1.54 128 1.54
 133  0.583  0.918  0.417-  89 1.53  83 1.53 135 1.54 129 1.54
 134  0.667  0.670  0.333- 139 1.51  61 1.51  47 1.52 214 2.60
 135  0.669  0.837  0.501- 130 1.48 140 1.52 133 1.54 139 1.55
 136  0.833  0.667  0.500- 118 1.53 138 1.54 117 1.54 139 1.54
 137  0.834  0.834  0.334- 141 1.53  69 1.54  71 1.54 139 1.54
 138  0.917  0.750  0.583- 120 1.54 209 1.54 136 1.54 190 1.54
 139  0.749  0.751  0.417- 134 1.51 137 1.54 136 1.54 135 1.55
 140  0.752  0.920  0.583-  91 1.52 135 1.52 158 1.54 209 1.54
 141  0.917  0.917  0.417-  73 1.53 137 1.53 120 1.53  91 1.54
 142  0.000  0.000  0.667- 125 1.53  93 1.53 147 1.53 213 1.53
 143  0.000  0.167  0.833- 165 1.53 148 1.53 147 1.53 162 1.54
 144  0.167  0.000  0.833- 146 1.53 147 1.53 197 1.53 196 1.54
 145  0.167  0.167  0.667-  77 1.53 147 1.53  79 1.53 149 1.54
 146  0.250  0.084  0.916- 144 1.53   9 1.53 151 1.53   4 1.53
 147  0.084  0.084  0.750- 144 1.53 142 1.53 145 1.53 143 1.53
 148  0.084  0.250  0.916- 143 1.53   4 1.53  25 1.54 168 1.54
 149  0.250  0.250  0.750- 174 1.53 168 1.53 145 1.54 151 1.54
 150  0.333  0.001  0.667- 132 1.53 197 1.53  77 1.54 155 1.54
 151  0.333  0.167  0.833- 155 1.53 146 1.53 156 1.53 149 1.54
 152  0.500  0.002  0.835- 205 1.52 154 1.52 204 1.54 155 1.54
 153  0.500  0.167  0.667- 155 1.53  85 1.53 157 1.54  87 1.54
 154  0.584  0.084  0.918- 152 1.52  12 1.53 159 1.53  17 1.53
 155  0.417  0.084  0.750- 151 1.53 153 1.53 150 1.54 152 1.54
 156  0.417  0.250  0.917- 176 1.52  12 1.53  33 1.53 151 1.53
 157  0.584  0.248  0.752- 159 1.52 182 1.53 153 1.54 176 1.54
 158  0.667  0.001  0.667- 163 1.53  85 1.54 140 1.54 205 1.54
 159  0.667  0.166  0.835- 157 1.52 154 1.53 164 1.53 163 1.54
 160  0.834  0.000  0.834- 163 1.53 162 1.53 212 1.54 213 1.54
 161  0.835  0.166  0.667-  95 1.52  93 1.53 165 1.53 163 1.54
 162  0.917  0.084  0.917-   1 1.53 160 1.53 143 1.54  20 1.54
 163  0.751  0.084  0.751- 158 1.53 160 1.53 161 1.54 159 1.54
 164  0.750  0.250  0.917-  20 1.53 159 1.53  41 1.54 184 1.54
 165  0.917  0.250  0.750- 143 1.53 161 1.53 166 1.54 184 1.54
 166  0.001  0.334  0.667- 115 1.53  79 1.53 165 1.54 171 1.54
 167  0.001  0.500  0.834- 189 1.53 172 1.53 171 1.54 186 1.54
 168  0.167  0.334  0.833- 170 1.53 171 1.53 149 1.53 148 1.54
 169  0.168  0.500  0.666- 103 1.53 101 1.54 171 1.54 173 1.54
 170  0.250  0.417  0.916- 168 1.53  33 1.54  28 1.54 175 1.54
 171  0.084  0.417  0.750- 168 1.53 166 1.54 167 1.54 169 1.54
 172  0.084  0.584  0.916-  28 1.53 167 1.53 192 1.54  49 1.54
 173  0.253  0.585  0.747- 198 1.52 169 1.54 175 1.54 192 1.55
 174  0.334  0.334  0.666-  87 1.53 149 1.53 179 1.54 101 1.54
 175  0.334  0.500  0.832- 180 1.53 179 1.54 170 1.54 173 1.54
 176  0.500  0.332  0.835- 156 1.52 179 1.53 157 1.54 178 1.54
 177  0.508  0.490  0.676- 179 1.48 181 1.51 109 1.53 214 2.24
 178  0.584  0.417  0.917-  41 1.53  36 1.53 183 1.54 176 1.54
 179  0.418  0.415  0.751- 177 1.48 176 1.53 175 1.54 174 1.54
 180  0.417  0.584  0.916- 200 1.53 175 1.53  57 1.54  36 1.54
 181  0.585  0.582  0.752- 177 1.51 183 1.53 200 1.54 206 1.56 214 2.84
 182  0.670  0.329  0.670- 109 1.49 157 1.53  95 1.53 187 1.54
 183  0.669  0.500  0.835- 188 1.53 181 1.53 187 1.54 178 1.54
 184  0.834  0.333  0.834- 187 1.53 186 1.53 164 1.54 165 1.54
 185  0.835  0.500  0.669- 189 1.53 117 1.53 187 1.54 115 1.54
 186  0.917  0.417  0.917-  25 1.53 184 1.53  44 1.54 167 1.54
 187  0.751  0.416  0.751- 184 1.53 185 1.54 183 1.54 182 1.54
 188  0.751  0.584  0.918- 183 1.53  44 1.53  65 1.54 208 1.54
 189  0.918  0.584  0.751- 185 1.53 167 1.53 190 1.54 208 1.54
 190  0.001  0.667  0.667- 195 1.53 103 1.54 189 1.54 138 1.54
 191  0.001  0.834  0.833- 196 1.53 213 1.53 210 1.54 195 1.54
 192  0.167  0.667  0.833- 195 1.54 194 1.54 172 1.54 173 1.55
 193  0.166  0.834  0.666- 125 1.53 195 1.54 197 1.54 123 1.54
 194  0.250  0.750  0.916-  57 1.53 192 1.54 199 1.54  52 1.54
 195  0.084  0.750  0.750- 190 1.53 192 1.54 193 1.54 191 1.54
 196  0.084  0.917  0.916-  52 1.53 191 1.53 144 1.54   1 1.54
 197  0.250  0.917  0.750- 150 1.53 144 1.53 199 1.54 193 1.54
 198  0.333  0.670  0.667- 203 1.51 123 1.51 173 1.52 214 2.60
 199  0.334  0.834  0.834- 204 1.53 194 1.54 197 1.54 203 1.54
 200  0.500  0.667  0.833- 180 1.53 202 1.54 181 1.54 203 1.54
 201  0.501  0.837  0.669- 130 1.48 205 1.52 132 1.54 203 1.55
 202  0.583  0.750  0.917-  60 1.54 207 1.54 200 1.54  65 1.54
 203  0.417  0.751  0.749- 198 1.51 199 1.54 200 1.54 201 1.55
 204  0.417  0.917  0.917-   9 1.53 199 1.53  60 1.53 152 1.54
 205  0.583  0.920  0.752- 152 1.52 201 1.52 158 1.54 207 1.54
 206  0.669  0.669  0.669- 211 1.52 130 1.53 181 1.56 117 1.56 214 2.63
 207  0.667  0.834  0.834- 212 1.53 202 1.54 211 1.54 205 1.54
 208  0.835  0.667  0.835- 210 1.52 211 1.53 188 1.54 189 1.54
 209  0.834  0.834  0.667- 213 1.53 138 1.54 211 1.54 140 1.54
 210  0.917  0.750  0.917- 208 1.52  49 1.53  68 1.54 191 1.54
 211  0.752  0.751  0.752- 206 1.52 208 1.53 207 1.54 209 1.54
 212  0.750  0.917  0.917- 207 1.53  68 1.53  17 1.53 160 1.54
 213  0.917  0.917  0.750- 209 1.53 191 1.53 142 1.53 160 1.54
 214  0.500  0.606  0.500- 130 2.20 131 2.20 177 2.24 112 2.24 108 2.24 106 2.24 109 2.47 110 2.47
                           198 2.60 134 2.60 206 2.63 127 2.63 181 2.84 117 2.84 104 2.84  39 2.84
 

IMPORTANT INFORMATION: All symmetrisations will be switched off!
NOSYMM: (Re-)initialisation of all symmetry stuff for point group C_1.


----------------------------------------------------------------------------------------

                                     Primitive cell                                     

  volume of cell :    1202.8529

  direct lattice vectors                    reciprocal lattice vectors
    10.635000229  0.000000000  0.000000000     0.094029147  0.000000000  0.000000000
     0.000000000 10.635000229  0.000000000     0.000000000  0.094029147  0.000000000
     0.000000000  0.000000000 10.635000229     0.000000000  0.000000000  0.094029147

  length of vectors
    10.635000229 10.635000229 10.635000229     0.094029147  0.094029147  0.094029147

  position of ions in fractional coordinates (direct lattice)
     0.999999939  0.000263072  0.999999935
     0.999604535  0.166968362  0.166556080
     0.166246817  0.000173038  0.166246814
     0.166556084  0.166968360  0.999604533
     0.249238297  0.083721320  0.249238294
     0.083117484  0.083689573  0.083117477
     0.082643455  0.250293039  0.249628560
     0.249628562  0.250293034  0.082643452
     0.333255946  0.000454546  0.999655382
     0.332825755  0.166228391  0.165335638
     0.499688082  0.001607866  0.165280068
     0.500000138  0.166631396  0.999999592
     0.583248159  0.083877357  0.249676425
     0.416496217  0.083793750  0.082383220
     0.415848984  0.248381382  0.248100460
     0.583140758  0.249544258  0.082704750
     0.666744166  0.000454637  0.000344189
     0.666610912  0.167039637  0.166697065
     0.833123151  0.000365042  0.166876872
     0.833443781  0.166968542  0.000395115
     0.916349401  0.083674733  0.249992790
     0.750007257  0.083674838  0.083650444
     0.749693034  0.250398536  0.250307071
     0.916470659  0.250425773  0.083529040
     0.999999722  0.333610492  0.999999725
     0.999083489  0.500365430  0.166317131
     0.165764122  0.333444687  0.165764122
     0.166317134  0.500365426  0.999083486
     0.248516859  0.416348653  0.248516856
     0.082826467  0.417014508  0.082826464
     0.081910393  0.583655365  0.248868287
     0.248868283  0.583655370  0.081910388
     0.333187841  0.333593358  0.999438148
     0.331280107  0.500466579  0.164692122
     0.499968267  0.331832783  0.164936803
     0.500000287  0.500385313  0.999999573
     0.582092236  0.415295713  0.248969380
     0.416293996  0.416752731  0.082604282
     0.415368927  0.582371232  0.247769770
     0.583144116  0.583684886  0.083858344
     0.666812560  0.333593372  0.000561029
     0.665815783  0.500423409  0.167823534
     0.832932241  0.333814886  0.167067630
     0.833682618  0.500365452  0.000915692
     0.915786480  0.417299231  0.250289627
     0.749710482  0.417299141  0.084212843
     0.747345830  0.584769927  0.252654075
     0.916336152  0.583826120  0.083663371
     0.999999784  0.666999166  0.999999782
     0.999484394  0.833625223  0.166596075
     0.165203366  0.667194019  0.165203366
     0.166596086  0.833625227  0.999484393
     0.247884500  0.750562575  0.247884494
     0.082689925  0.750472351  0.082689925
     0.082679486  0.917103095  0.249693082
     0.249693089  0.917103090  0.082679478
     0.333239085  0.666988354  0.999383659
     0.332984258  0.834192364  0.165662735
     0.499900838  0.667114181  0.166701242
     0.500000156  0.833885101  0.999999700
     0.583277203  0.750727230  0.250660012
     0.416577950  0.750325401  0.083040828
     0.416700664  0.919619652  0.247667120
     0.583325056  0.917482222  0.083052928
     0.666761010  0.666988070  0.000615670
     0.665977641  0.834366351  0.166456831
     0.832604674  0.666647553  0.167395228
     0.833403819  0.833625076  0.000515378
     0.916033033  0.750433146  0.250314437
     0.749685688  0.750433035  0.083966690
     0.749744426  0.917144523  0.250255765
     0.916462001  0.917042321  0.083537911
     0.999655390  0.000454546  0.333255941
     0.999999602  0.166631393  0.500000138
     0.165280081  0.001607873  0.499688082
     0.165335641  0.166228392  0.332825757
     0.249676435  0.083877358  0.583248165
     0.082383227  0.083793759  0.416496220
     0.082704753  0.249544260  0.583140753
     0.248100463  0.248381385  0.415848990
     0.332567562  0.001378392  0.332567561
     0.332876754  0.166652602  0.499718982
     0.500000201  0.000837005  0.500000205
     0.499718978  0.166652597  0.332876751
     0.583610426  0.083871455  0.583610433
     0.416390063  0.083871380  0.416390060
     0.416640914  0.249897896  0.583359790
     0.583359789  0.249897893  0.416640912
     0.666640274  0.000798069  0.333359966
     0.667123474  0.166652826  0.500281591
     0.834719677  0.001607913  0.500312277
     0.833302816  0.167039620  0.333389534
     0.917616148  0.083793944  0.583503930
     0.750323722  0.083877321  0.416752229
     0.751899558  0.248381654  0.584151379
     0.917294752  0.249544080  0.416859688
     0.999438162  0.333593351  0.333187839
     0.999999584  0.500385315  0.500000291
     0.164936808  0.331832779  0.499968264
     0.164692122  0.500466578  0.331280109
     0.248969380  0.415295696  0.582092246
     0.082604285  0.416752724  0.416294000
     0.083858353  0.583684883  0.583144120
     0.247769772  0.582371223  0.415368925
     0.330392933  0.328989945  0.330392934
     0.323569522  0.490432754  0.492278690
     0.500000477  0.331805995  0.500000490
     0.492278692  0.490432795  0.323569532
     0.588600670  0.410263965  0.588600692
     0.411399887  0.410263890  0.411399895
     0.666305135  0.333501612  0.333695226
     0.676430657  0.490432841  0.507722258
     0.835062816  0.331832865  0.500032342
     0.832176147  0.500423496  0.334184653
     0.917394869  0.416752854  0.583706490
     0.751031304  0.415295122  0.417907996
     0.752229950  0.582370521  0.584631134
     0.916140961  0.583684804  0.416856567
     0.999383668  0.666988357  0.333239085
     0.999999708  0.833885097  0.500000159
     0.166701234  0.667114180  0.499900843
     0.165662742  0.834192371  0.332984258
     0.250660022  0.750727231  0.583277223
     0.083040835  0.750325399  0.416577952
     0.083052945  0.917482219  0.583325062
     0.247667122  0.919619665  0.416700664
     0.330746850  0.669281052  0.330746831
     0.331053922  0.837268397  0.498624400
     0.498624401  0.837268393  0.331053909
     0.593321688  0.764918194  0.593321720
     0.406679215  0.764918669  0.406679194
     0.416669722  0.918135185  0.583330597
     0.583330585  0.918135175  0.416669726
     0.666566307  0.670267811  0.333433756
     0.668946691  0.837268950  0.501375746
     0.833298721  0.667114116  0.500099493
     0.833543003  0.834366222  0.334022625
     0.916958707  0.750325302  0.583422319
     0.749339413  0.750726653  0.416723002
     0.752333049  0.919619848  0.583299291
     0.916946660  0.917482219  0.416675151
     0.000344198  0.000454640  0.666744173
     0.000395115  0.166968539  0.833443787
     0.166876879  0.000365040  0.833123154
     0.166697071  0.167039635  0.666610912
     0.249992790  0.083674731  0.916349402
     0.083650448  0.083674835  0.750007264
     0.083529041  0.250425771  0.916470663
     0.250307082  0.250398534  0.749693040
     0.333359969  0.000798062  0.666640270
     0.333389531  0.167039622  0.833302810
     0.500312275  0.001607912  0.834719676
     0.500281592  0.166652832  0.667123476
     0.583503926  0.083793944  0.917616151
     0.416752228  0.083877325  0.750323720
     0.416859689  0.249544083  0.917294747
     0.584151370  0.248381661  0.751899557
     0.667432532  0.001378469  0.667432536
     0.667174323  0.166228770  0.834663983
     0.833752986  0.000173186  0.833752993
     0.834663980  0.166228764  0.667174324
     0.916882303  0.083689732  0.916882303
     0.750761480  0.083721742  0.750761478
     0.750371278  0.250293468  0.917355856
     0.917355853  0.250293459  0.750371284
     0.000561035  0.333593375  0.666812556
     0.000915703  0.500365455  0.833682617
     0.167067637  0.333814890  0.832932247
     0.167823544  0.500423409  0.665815780
     0.250289638  0.417299238  0.915786483
     0.084212849  0.417299149  0.749710483
     0.083663384  0.583826118  0.916336152
     0.252654088  0.584769933  0.747345837
     0.333695226  0.333501609  0.666305132
     0.334184661  0.500423496  0.832176151
     0.500032337  0.331832869  0.835062813
     0.507722242  0.490432846  0.676430661
     0.583706484  0.416752854  0.917394865
     0.417908003  0.415295122  0.751031315
     0.416856562  0.583684801  0.916140949
     0.584631100  0.582370526  0.752229944
     0.669607458  0.328990062  0.669607468
     0.668719994  0.500466422  0.835307461
     0.834235635  0.333444833  0.834235646
     0.835307456  0.500466420  0.668720016
     0.917172904  0.417014559  0.917172906
     0.751482857  0.416348870  0.751482869
     0.751131863  0.583655127  0.918089029
     0.918089032  0.583655125  0.751131873
     0.000615686  0.666988067  0.666761016
     0.000515384  0.833625079  0.833403824
     0.167395244  0.666647552  0.832604669
     0.166456847  0.834366345  0.665977647
     0.250314449  0.750433145  0.916033027
     0.083966704  0.750433033  0.749685693
     0.083537917  0.917042321  0.916462008
     0.250255779  0.917144515  0.749744422
     0.333433775  0.670267803  0.666566324
     0.334022635  0.834366216  0.833542997
     0.500099480  0.667114117  0.833298712
     0.501375747  0.837268936  0.668946696
     0.583422312  0.750325303  0.916958701
     0.416723000  0.750726646  0.749339411
     0.416675147  0.917482215  0.916946651
     0.583299277  0.919619842  0.752333050
     0.669253106  0.669281088  0.669253136
     0.667015759  0.834191973  0.834336839
     0.834796205  0.667193668  0.834796215
     0.834336829  0.834191972  0.667015774
     0.917309789  0.750472145  0.917309796
     0.752115654  0.750562087  0.752115672
     0.750306800  0.917102945  0.917320147
     0.917320146  0.917102948  0.750306810
     0.500002111  0.605563893  0.500002143

  ion indices of the primitive-cell ions
   primitive index   ion index
                 1           1
                 2           2
                 3           3
                 4           4
                 5           5
                 6           6
                 7           7
                 8           8
                 9           9
                10          10
                11          11
                12          12
                13          13
                14          14
                15          15
                16          16
                17          17
                18          18
                19          19
                20          20
                21          21
                22          22
                23          23
                24          24
                25          25
                26          26
                27          27
                28          28
                29          29
                30          30
                31          31
                32          32
                33          33
                34          34
                35          35
                36          36
                37          37
                38          38
                39          39
                40          40
                41          41
                42          42
                43          43
                44          44
                45          45
                46          46
                47          47
                48          48
                49          49
                50          50
                51          51
                52          52
                53          53
                54          54
                55          55
                56          56
                57          57
                58          58
                59          59
                60          60
                61          61
                62          62
                63          63
                64          64
                65          65
                66          66
                67          67
                68          68
                69          69
                70          70
                71          71
                72          72
                73          73
                74          74
                75          75
                76          76
                77          77
                78          78
                79          79
                80          80
                81          81
                82          82
                83          83
                84          84
                85          85
                86          86
                87          87
                88          88
                89          89
                90          90
                91          91
                92          92
                93          93
                94          94
                95          95
                96          96
                97          97
                98          98
                99          99
               100         100
               101         101
               102         102
               103         103
               104         104
               105         105
               106         106
               107         107
               108         108
               109         109
               110         110
               111         111
               112         112
               113         113
               114         114
               115         115
               116         116
               117         117
               118         118
               119         119
               120         120
               121         121
               122         122
               123         123
               124         124
               125         125
               126         126
               127         127
               128         128
               129         129
               130         130
               131         131
               132         132
               133         133
               134         134
               135         135
               136         136
               137         137
               138         138
               139         139
               140         140
               141         141
               142         142
               143         143
               144         144
               145         145
               146         146
               147         147
               148         148
               149         149
               150         150
               151         151
               152         152
               153         153
               154         154
               155         155
               156         156
               157         157
               158         158
               159         159
               160         160
               161         161
               162         162
               163         163
               164         164
               165         165
               166         166
               167         167
               168         168
               169         169
               170         170
               171         171
               172         172
               173         173
               174         174
               175         175
               176         176
               177         177
               178         178
               179         179
               180         180
               181         181
               182         182
               183         183
               184         184
               185         185
               186         186
               187         187
               188         188
               189         189
               190         190
               191         191
               192         192
               193         193
               194         194
               195         195
               196         196
               197         197
               198         198
               199         199
               200         200
               201         201
               202         202
               203         203
               204         204
               205         205
               206         206
               207         207
               208         208
               209         209
               210         210
               211         211
               212         212
               213         213
               214         214

----------------------------------------------------------------------------------------

 
 
 KPOINTS: 1 x 1 x 1 k-mesh (automatic generation o

Automatic generation of k-mesh.
 Grid dimensions read from file:
 generate k-points for:    1    1    1

 Generating k-lattice:

  Cartesian coordinates                     Fractional coordinates (reciprocal lattice)
     0.094029147  0.000000000  0.000000000     1.000000000  0.000000000  0.000000000
     0.000000000  0.094029147  0.000000000     0.000000000  1.000000000  0.000000000
     0.000000000  0.000000000  0.094029147     0.000000000  0.000000000  1.000000000

  Length of vectors
     0.094029147  0.094029147  0.094029147

  Shift w.r.t. Gamma in fractional coordinates (k-lattice)
     0.000000000  0.000000000  0.000000000

 
 Subroutine IBZKPT returns following result:
 ===========================================
 
 Found      1 irreducible k-points:
 
 Following reciprocal coordinates:
            Coordinates               Weight
  0.000000  0.000000  0.000000      1.000000
 
 Following cartesian coordinates:
            Coordinates               Weight
  0.000000  0.000000  0.000000      1.000000
 


--------------------------------------------------------------------------------------------------------




 Dimension of arrays:
   k-points           NKPTS =      1   k-points in BZ     NKDIM =      1   number of bands    NBANDS=    543
   number of dos      NEDOS =    301   number of ions     NIONS =    214
   non local maximal  LDIM  =      8   non local SUM 2l+1 LMDIM =     32
   total plane-waves  NPLWV = 343000
   max r-space proj   IRMAX =      1   max aug-charges    IRDMAX=  17079
   dimension x,y,z NGX =    70 NGY =   70 NGZ =   70
   dimension x,y,z NGXF=   140 NGYF=  140 NGZF=  140
   support grid    NGXF=   140 NGYF=  140 NGZF=  140
   ions per type =             213   1
   NGX,Y,Z   is equivalent  to a cutoff of  10.94, 10.94, 10.94 a.u.
   NGXF,Y,Z  is equivalent  to a cutoff of  21.88, 21.88, 21.88 a.u.

 SYSTEM =  unknown system                          
 POSCAR =  prv2                                    

 Startparameter for this run:
   NWRITE =      2    write-flag & timer
   PREC   = accura    normal or accurate (medium, high low for compatibility)
   ISTART =      1    job   : 0-new  1-cont  2-samecut
   ICHARG =      0    charge: 1-file 2-atom 10-const
   ISPIN  =      2    spin polarized calculation?
   LNONCOLLINEAR =      F non collinear calculations
   LSORBIT =      F    spin-orbit coupling
   INIWAV =      1    electr: 0-lowe 1-rand  2-diag
   LASPH  =      F    aspherical Exc in radial PAW
 Electronic Relaxation 1
   ENCUT  =  370.0 eV  27.19 Ry    5.21 a.u.  16.68 16.68 16.68*2*pi/ulx,y,z
   ENINI  =  370.0     initial cutoff
   ENAUG  =  740.0 eV  augmentation charge cutoff
   NELM   =    150;   NELMIN=  2; NELMDL=  0     # of ELM steps 
   EDIFF  = 0.1E-05   stopping-criterion for ELM
   LREAL  =      F    real-space projection
   NLSPLINE    = F    spline interpolate recip. space projectors
   LCOMPAT=      F    compatible to vasp.4.4
   GGA_COMPAT  = T    GGA compatible to vasp.4.4-vasp.4.6
   LMAXPAW     = -100 max onsite density
   LMAXMIX     =    2 max onsite mixed and CHGCAR
   VOSKOWN=      0    Vosko Wilk Nusair interpolation
   ROPT   =    0.00000   0.00000
 Ionic relaxation
   EDIFFG = -.1E-01   stopping-criterion for IOM
   NSW    =      0    number of steps for IOM
   NBLOCK =      1;   KBLOCK =      1    inner block; outer block 
   IBRION =     -1    ionic relax: 0-MD 1-quasi-New 2-CG
   NFREE  =      0    steps in history (QN), initial steepest desc. (CG)
   ISIF   =      1    stress and relaxation
   IWAVPR =     10    prediction:  0-non 1-charg 2-wave 3-comb
   ISYM   =      0    0-nonsym 1-usesym 2-fastsym
   LCORR  =      T    Harris-Foulkes like correction to forces

   POTIM  = 0.2000    time-step for ionic-motion
   TEIN   =    0.0    initial temperature
   TEBEG  =    0.0;   TEEND  =   0.0 temperature during run
   SMASS  =  -3.00    Nose mass-parameter (am)
   estimated Nose-frequenzy (Omega)   =  0.10E-29 period in steps = 0.31E+47 mass=  -0.258E-26a.u.
   SCALEE = 1.0000    scale energy and forces
   NPACO  =    256;   APACO  = 16.0  distance and # of slots for P.C.
   PSTRESS=    0.0 pullay stress

  Mass of Ions in am
   POMASS =  12.01229.00
  Ionic Valenz
   ZVAL   =   4.00 13.00
  Atomic Wigner-Seitz radii
   RWIGS  =  -1.00 -1.00
  virtual crystal weights 
   VCA    =   1.00  1.00
   NELECT =     867.0000    total number of electrons
   NUPDOWN=       1.0000    fix difference up-down

 DOS related values:
   EMIN   =  10.00;   EMAX   =-10.00  energy-range for DOS
   EFERMI =   0.00
   ISMEAR =    -2;   SIGMA  =   0.01  broadening in eV -4-tet -1-fermi 0-gaus

 Electronic relaxation 2 (details)
   IALGO  =     38    algorithm
   LDIAG  =      T    sub-space diagonalisation (order eigenvalues)
   LSUBROT=      F    optimize rotation matrix (better conditioning)
   TURBO    =      0    0=normal 1=particle mesh
   IRESTART =      0    0=no restart 2=restart with 2 vectors
   NREBOOT  =      0    no. of reboots
   NMIN     =      0    reboot dimension
   EREF     =   0.00    reference energy to select bands
   IMIX   =      4    mixing-type and parameters
     AMIX     =   0.40;   BMIX     =  1.00
     AMIX_MAG =   1.60;   BMIX_MAG =  1.00
     AMIN     =   0.10
     WC   =   100.;   INIMIX=   1;  MIXPRE=   1;  MAXMIX= -45

 Intra band minimization:
   WEIMIN = 0.0000     energy-eigenvalue tresh-hold
   EBREAK =  0.46E-09  absolut break condition
   DEPER  =   0.30     relativ break condition  

   TIME   =   0.40     timestep for ELM

  volume/ion in A,a.u.               =       5.62        37.93
  Fermi-wavevector in a.u.,A,eV,Ry     =   1.467834  2.773805 29.314262  2.154537
  Thomas-Fermi vector in A             =   2.583404
 
 Write flags
   LWAVE        =      T    write WAVECAR
   LDOWNSAMPLE  =      F    k-point downsampling of WAVECAR
   LCHARG       =      T    write CHGCAR
   LVTOT        =      F    write LOCPOT, total local potential
   LVHAR        =      F    write LOCPOT, Hartree potential only
   LELF         =      F    write electronic localiz. function (ELF)
   LORBIT       =      0    0 simple, 1 ext, 2 COOP (PROOUT), +10 PAW based schemes


 Dipole corrections
   LMONO  =      F    monopole corrections only (constant potential shift)
   LDIPOL =      T    correct potential (dipole corrections)
   IDIPOL =      3    1-x, 2-y, 3-z, 4-all directions 
   EPSILON=  1.0000000 bulk dielectric constant

   EFIELD =  0.0600000 eV/A    external electric force field

 Exchange correlation treatment:
   GGA     =    PE    GGA type
   LEXCH   =     8    internal setting for exchange type
   VOSKOWN=      0    Vosko Wilk Nusair interpolation
   LHFCALC =     F    Hartree Fock is set to
   LHFONE  =     F    Hartree Fock one center treatment
   AEXX    =    0.0000 exact exchange contribution

 Linear response parameters
   LEPSILON=     F    determine dielectric tensor
   LRPA    =     F    only Hartree local field effects (RPA)
   LNABLA  =     F    use nabla operator in PAW spheres
   LVEL    =     F    velocity operator in full k-point grid
   LINTERFAST=   F  fast interpolation
   KINTER  =     0    interpolate to denser k-point grid
   CSHIFT  =0.1000    complex shift for real part using Kramers Kronig
   OMEGAMAX=  -1.0    maximum frequency
   DEG_THRESHOLD= 0.2000000E-02 threshold for treating states as degnerate
   RTIME   =   -0.100 relaxation time in fs
  (WPLASMAI=    0.000 imaginary part of plasma frequency in eV, 0.658/RTIME)
   DFIELD  = 0.0000000 0.0000000 0.0000000 field for delta impulse in time
 
 Orbital magnetization related:
   ORBITALMAG=     F  switch on orbital magnetization
   LCHIMAG   =     F  perturbation theory with respect to B field
   DQ        =  0.001000  dq finite difference perturbation B field
   LLRAUG    =     F  two centre corrections for induced B field



--------------------------------------------------------------------------------------------------------


 Static calculation
 charge density and potential will be updated during run
 spin polarized calculation
 Variant of blocked Davidson
 Davidson routine will perform the subspace rotation
 perform sub-space diagonalisation
    after iterative eigenvector-optimisation
 modified Broyden-mixing scheme, WC =      100.0
 initial mixing is a Kerker type mixing with AMIX =  0.4000 and BMIX =      1.0000
 Hartree-type preconditioning will be used
 using additional bands          109
 reciprocal scheme for non local part
 use partial core corrections
 calculate Harris-corrections to forces 
   (improved forces if not selfconsistent)
 use gradient corrections 
 use of overlap-Matrix (Vanderbilt PP)
 partial occupancies read from INCAR or WAVECAR (fixed during run)


--------------------------------------------------------------------------------------------------------


  energy-cutoff  :      370.00
  volume of cell :     1202.85
      direct lattice vectors                 reciprocal lattice vectors
    10.635000229  0.000000000  0.000000000     0.094029147  0.000000000  0.000000000
     0.000000000 10.635000229  0.000000000     0.000000000  0.094029147  0.000000000
     0.000000000  0.000000000 10.635000229     0.000000000  0.000000000  0.094029147

  length of vectors
    10.635000229 10.635000229 10.635000229     0.094029147  0.094029147  0.094029147


 
 old parameters found on file WAVECAR:
  energy-cutoff  :      370.00
  volume of cell :     1202.85
      direct lattice vectors                 reciprocal lattice vectors
    10.635000229  0.000000000  0.000000000     0.094029147  0.000000000  0.000000000
     0.000000000 10.635000229  0.000000000     0.000000000  0.094029147  0.000000000
     0.000000000  0.000000000 10.635000229     0.000000000  0.000000000  0.094029147

  length of vectors

 
 k-points in units of 2pi/SCALE and weight: 1 x 1 x 1 k-mesh (automatic generation o
   0.00000000  0.00000000  0.00000000       1.000
 
 k-points in reciprocal lattice and weights: 1 x 1 x 1 k-mesh (automatic generation o
   0.00000000  0.00000000  0.00000000       1.000
 
 position of ions in fractional coordinates (direct lattice) 
   0.99999994  0.00026307  0.99999993
   0.99960454  0.16696836  0.16655608
   0.16624682  0.00017304  0.16624681
   0.16655608  0.16696836  0.99960453
   0.24923830  0.08372132  0.24923829
   0.08311748  0.08368957  0.08311748
   0.08264345  0.25029304  0.24962856
   0.24962856  0.25029303  0.08264345
   0.33325595  0.00045455  0.99965538
   0.33282575  0.16622839  0.16533564
   0.49968808  0.00160787  0.16528007
   0.50000014  0.16663140  0.99999959
   0.58324816  0.08387736  0.24967643
   0.41649622  0.08379375  0.08238322
   0.41584898  0.24838138  0.24810046
   0.58314076  0.24954426  0.08270475
   0.66674417  0.00045464  0.00034419
   0.66661091  0.16703964  0.16669706
   0.83312315  0.00036504  0.16687687
   0.83344378  0.16696854  0.00039512
   0.91634940  0.08367473  0.24999279
   0.75000726  0.08367484  0.08365044
   0.74969303  0.25039854  0.25030707
   0.91647066  0.25042577  0.08352904
   0.99999972  0.33361049  0.99999973
   0.99908349  0.50036543  0.16631713
   0.16576412  0.33344469  0.16576412
   0.16631713  0.50036543  0.99908349
   0.24851686  0.41634865  0.24851686
   0.08282647  0.41701451  0.08282646
   0.08191039  0.58365536  0.24886829
   0.24886828  0.58365537  0.08191039
   0.33318784  0.33359336  0.99943815
   0.33128011  0.50046658  0.16469212
   0.49996827  0.33183278  0.16493680
   0.50000029  0.50038531  0.99999957
   0.58209224  0.41529571  0.24896938
   0.41629400  0.41675273  0.08260428
   0.41536893  0.58237123  0.24776977
   0.58314412  0.58368489  0.08385834
   0.66681256  0.33359337  0.00056103
   0.66581578  0.50042341  0.16782353
   0.83293224  0.33381489  0.16706763
   0.83368262  0.50036545  0.00091569
   0.91578648  0.41729923  0.25028963
   0.74971048  0.41729914  0.08421284
   0.74734583  0.58476993  0.25265408
   0.91633615  0.58382612  0.08366337
   0.99999978  0.66699917  0.99999978
   0.99948439  0.83362522  0.16659608
   0.16520337  0.66719402  0.16520337
   0.16659609  0.83362523  0.99948439
   0.24788450  0.75056257  0.24788449
   0.08268993  0.75047235  0.08268993
   0.08267949  0.91710309  0.24969308
   0.24969309  0.91710309  0.08267948
   0.33323908  0.66698835  0.99938366
   0.33298426  0.83419236  0.16566274
   0.49990084  0.66711418  0.16670124
   0.50000016  0.83388510  0.99999970
   0.58327720  0.75072723  0.25066001
   0.41657795  0.75032540  0.08304083
   0.41670066  0.91961965  0.24766712
   0.58332506  0.91748222  0.08305293
   0.66676101  0.66698807  0.00061567
   0.66597764  0.83436635  0.16645683
   0.83260467  0.66664755  0.16739523
   0.83340382  0.83362508  0.00051538
   0.91603303  0.75043315  0.25031444
   0.74968569  0.75043303  0.08396669
   0.74974443  0.91714452  0.25025577
   0.91646200  0.91704232  0.08353791
   0.99965539  0.00045455  0.33325594
   0.99999960  0.16663139  0.50000014
   0.16528008  0.00160787  0.49968808
   0.16533564  0.16622839  0.33282576
   0.24967643  0.08387736  0.58324816
   0.08238323  0.08379376  0.41649622
   0.08270475  0.24954426  0.58314075
   0.24810046  0.24838139  0.41584899
   0.33256756  0.00137839  0.33256756
   0.33287675  0.16665260  0.49971898
   0.50000020  0.00083700  0.50000021
   0.49971898  0.16665260  0.33287675
   0.58361043  0.08387146  0.58361043
   0.41639006  0.08387138  0.41639006
   0.41664091  0.24989790  0.58335979
   0.58335979  0.24989789  0.41664091
   0.66664027  0.00079807  0.33335997
   0.66712347  0.16665283  0.50028159
   0.83471968  0.00160791  0.50031228
   0.83330282  0.16703962  0.33338953
   0.91761615  0.08379394  0.58350393
   0.75032372  0.08387732  0.41675223
   0.75189956  0.24838165  0.58415138
   0.91729475  0.24954408  0.41685969
   0.99943816  0.33359335  0.33318784
   0.99999958  0.50038531  0.50000029
   0.16493681  0.33183278  0.49996826
   0.16469212  0.50046658  0.33128011
   0.24896938  0.41529570  0.58209225
   0.08260428  0.41675272  0.41629400
   0.08385835  0.58368488  0.58314412
   0.24776977  0.58237122  0.41536892
   0.33039293  0.32898994  0.33039293
   0.32356952  0.49043275  0.49227869
   0.50000048  0.33180599  0.50000049
   0.49227869  0.49043279  0.32356953
   0.58860067  0.41026396  0.58860069
   0.41139989  0.41026389  0.41139989
   0.66630514  0.33350161  0.33369523
   0.67643066  0.49043284  0.50772226
   0.83506282  0.33183287  0.50003234
   0.83217615  0.50042350  0.33418465
   0.91739487  0.41675285  0.58370649
   0.75103130  0.41529512  0.41790800
   0.75222995  0.58237052  0.58463113
   0.91614096  0.58368480  0.41685657
   0.99938367  0.66698836  0.33323908
   0.99999971  0.83388510  0.50000016
   0.16670123  0.66711418  0.49990084
   0.16566274  0.83419237  0.33298426
   0.25066002  0.75072723  0.58327722
   0.08304083  0.75032540  0.41657795
   0.08305295  0.91748222  0.58332506
   0.24766712  0.91961967  0.41670066
   0.33074685  0.66928105  0.33074683
   0.33105392  0.83726840  0.49862440
   0.49862440  0.83726839  0.33105391
   0.59332169  0.76491819  0.59332172
   0.40667922  0.76491867  0.40667919
   0.41666972  0.91813519  0.58333060
   0.58333059  0.91813517  0.41666973
   0.66656631  0.67026781  0.33343376
   0.66894669  0.83726895  0.50137575
   0.83329872  0.66711412  0.50009949
   0.83354300  0.83436622  0.33402263
   0.91695871  0.75032530  0.58342232
   0.74933941  0.75072665  0.41672300
   0.75233305  0.91961985  0.58329929
   0.91694666  0.91748222  0.41667515
   0.00034420  0.00045464  0.66674417
   0.00039512  0.16696854  0.83344379
   0.16687688  0.00036504  0.83312315
   0.16669707  0.16703964  0.66661091
   0.24999279  0.08367473  0.91634940
   0.08365045  0.08367484  0.75000726
   0.08352904  0.25042577  0.91647066
   0.25030708  0.25039853  0.74969304
   0.33335997  0.00079806  0.66664027
   0.33338953  0.16703962  0.83330281
   0.50031227  0.00160791  0.83471968
   0.50028159  0.16665283  0.66712348
   0.58350393  0.08379394  0.91761615
   0.41675223  0.08387733  0.75032372
   0.41685969  0.24954408  0.91729475
   0.58415137  0.24838166  0.75189956
   0.66743253  0.00137847  0.66743254
   0.66717432  0.16622877  0.83466398
   0.83375299  0.00017319  0.83375299
   0.83466398  0.16622876  0.66717432
   0.91688230  0.08368973  0.91688230
   0.75076148  0.08372174  0.75076148
   0.75037128  0.25029347  0.91735586
   0.91735585  0.25029346  0.75037128
   0.00056103  0.33359338  0.66681256
   0.00091570  0.50036546  0.83368262
   0.16706764  0.33381489  0.83293225
   0.16782354  0.50042341  0.66581578
   0.25028964  0.41729924  0.91578648
   0.08421285  0.41729915  0.74971048
   0.08366338  0.58382612  0.91633615
   0.25265409  0.58476993  0.74734584
   0.33369523  0.33350161  0.66630513
   0.33418466  0.50042350  0.83217615
   0.50003234  0.33183287  0.83506281
   0.50772224  0.49043285  0.67643066
   0.58370648  0.41675285  0.91739487
   0.41790800  0.41529512  0.75103132
   0.41685656  0.58368480  0.91614095
   0.58463110  0.58237053  0.75222994
   0.66960746  0.32899006  0.66960747
   0.66871999  0.50046642  0.83530746
   0.83423564  0.33344483  0.83423565
   0.83530746  0.50046642  0.66872002
   0.91717290  0.41701456  0.91717291
   0.75148286  0.41634887  0.75148287
   0.75113186  0.58365513  0.91808903
   0.91808903  0.58365513  0.75113187
   0.00061569  0.66698807  0.66676102
   0.00051538  0.83362508  0.83340382
   0.16739524  0.66664755  0.83260467
   0.16645685  0.83436635  0.66597765
   0.25031445  0.75043315  0.91603303
   0.08396670  0.75043303  0.74968569
   0.08353792  0.91704232  0.91646201
   0.25025578  0.91714452  0.74974442
   0.33343377  0.67026780  0.66656632
   0.33402263  0.83436622  0.83354300
   0.50009948  0.66711412  0.83329871
   0.50137575  0.83726894  0.66894670
   0.58342231  0.75032530  0.91695870
   0.41672300  0.75072665  0.74933941
   0.41667515  0.91748222  0.91694665
   0.58329928  0.91961984  0.75233305
   0.66925311  0.66928109  0.66925314
   0.66701576  0.83419197  0.83433684
   0.83479621  0.66719367  0.83479622
   0.83433683  0.83419197  0.66701577
   0.91730979  0.75047214  0.91730980
   0.75211565  0.75056209  0.75211567
   0.75030680  0.91710295  0.91732015
   0.91732015  0.91710295  0.75030681
   0.50000211  0.60556389  0.50000214
 
 position of ions in cartesian coordinates  (Angst):
  10.63499958  0.00279778 10.63499954
  10.63079446  1.77570857  1.77132395
   1.76803494  0.00184026  1.76803491
   1.77132399  1.77570854 10.63079443
   2.65064934  0.89037626  2.65064931
   0.88395446  0.89003863  0.88395439
   0.87891316  2.66186653  2.65479979
   2.65479982  2.66186648  0.87891313
   3.54417707  0.00483410 10.63133522
   3.53960198  1.76783898  1.75834455
   5.31418287  0.01709966  1.75775356
   5.31750158  1.77212493 10.63499589
   6.20284431  0.89203571  2.65530884
   4.42943736  0.89114655  0.87614557
   4.42255404  2.64153605  2.63854845
   6.20170210  2.65390324  0.87956504
   7.09082436  0.00483506  0.00366045
   7.08940720  1.77646658  1.77282332
   8.86026491  0.00388222  1.77473557
   8.86367480  1.77571048  0.00420205
   9.74537609  0.88988080  2.65867338
   7.97632735  0.88988192  0.88962249
   7.97298559  2.66298849  2.66201576
   9.74666567  2.66327815  0.88833136
  10.63499728  3.54794765 10.63499731
  10.62525313  5.32138646  1.76878273
   1.76290148  3.54618432  1.76290147
   1.76878276  5.32138642 10.62525310
   2.64297685  4.42786802  2.64297682
   0.88085949  4.43494939  0.88085946
   0.87111705  6.20717494  2.64671429
   2.64671424  6.20717499  0.87111700
   3.54345277  3.54776544 10.62902494
   3.52316402  5.32246218  1.75150075
   5.31716263  3.52904172  1.75410294
   5.31750317  5.32159792 10.63499569
   6.19055107  4.41667001  2.64778942
   4.42728675  4.43216538  0.87849655
   4.41744863  6.19351819  2.63503156
   6.20173781  6.20748890  0.89183351
   7.09155173  3.54776559  0.00596655
   7.08095101  5.32200307  1.78480332
   8.85823457  3.55012139  1.77676428
   8.86621483  5.32138669  0.00973839
   9.73938942  4.43797742  2.66183024
   7.97317115  4.43797646  0.89560361
   7.94802307  6.21902831  2.68697615
   9.74523519  6.20899092  0.88975997
  10.63499793  7.09353628 10.63499791
  10.62951676  8.86560443  1.77174930
   1.75693783  7.09560854  1.75693783
   1.77174941  8.86560448 10.62951675
   2.63625171  7.98223316  2.63625165
   0.87940737  7.98127363  0.87940737
   0.87929635  9.75339163  2.65548598
   2.65548606  9.75339157  0.87929627
   3.54399774  7.09342129 10.62844544
   3.54128766  8.87163598  1.76182323
   5.31644553  7.09475947  1.77286774
   5.31750177  8.86836824 10.63499704
   6.20315319  7.98398426  2.66576928
   4.43030659  7.97971081  0.88313923
   4.43161166  9.78015521  2.63393988
   6.20366210  9.75742364  0.88326791
   7.09100350  7.09341828  0.00654766
   7.08267237  8.87348633  1.77026844
   8.85475089  7.08979687  1.78024829
   8.86324981  8.86560288  0.00548104
   9.74201151  7.98085668  2.66209410
   7.97290747  7.98085550  0.89298577
   7.97353214  9.75383221  2.66147012
   9.74657359  9.75274529  0.88842570
  10.63133530  0.00483410  3.54417700
  10.63499599  1.77212490  5.31750159
   1.75775369  0.01709973  5.31418286
   1.75834458  1.76783899  3.53960200
   2.65530894  0.89203572  6.20284437
   0.87614564  0.89114665  4.42943739
   0.87956506  2.65390326  6.20170204
   2.63854848  2.64153609  4.42255410
   3.53685610  0.01465920  3.53685608
   3.54014435  1.77235046  5.31451149
   5.31750225  0.00890154  5.31750230
   5.31451145  1.77235040  3.54014433
   6.20669702  0.89197294  6.20669709
   4.42830841  0.89197215  4.42830839
   4.43097622  2.65766418  6.20403150
   6.20403149  2.65766415  4.43097619
   7.08971947  0.00848747  3.54528331
   7.09485830  1.77235284  5.32049483
   8.87724396  0.01710015  5.32082118
   8.86217564  1.77646639  3.54559777
   9.75884795  0.89114861  6.20556442
   7.97969295  0.89203533  4.43216005
   7.99645197  2.64153895  6.21245005
   9.75542990  2.65390135  4.43330288
  10.62902508  3.54776536  3.54345275
  10.63499581  5.32159794  5.31750321
   1.75410299  3.52904168  5.31716260
   1.75150075  5.32246217  3.52316403
   2.64778941  4.41666982  6.19055117
   0.87849658  4.43216532  4.42728679
   0.89183360  6.20748887  6.20173785
   2.63503159  6.19351809  4.41744861
   3.51372892  3.49880814  3.51372893
   3.44116194  5.21575245  5.23538398
   5.31750519  3.52875683  5.31750533
   5.23538400  5.21575288  3.44116204
   6.25976826  4.36315736  6.25976849
   4.37523789  4.36315657  4.37523797
   7.08615527  3.54678972  3.54884880
   7.19384020  5.21575337  5.39962633
   8.88089324  3.52904260  5.31784408
   8.85019352  5.32200399  3.55405386
   9.75649464  4.43216670  6.20771865
   7.98721809  4.41666372  4.44445164
   7.99996569  6.19351062  6.21755224
   9.74315933  6.20748803  4.43326969
  10.62844554  7.09342132  3.54399774
  10.63499712  8.86836820  5.31750180
   1.77286766  7.09475946  5.31644558
   1.76182330  8.87163606  3.54128766
   2.66576939  7.98398427  6.20315340
   0.88313930  7.97971079  4.43030661
   0.88326809  9.75742361  6.20366217
   2.63393990  9.78015535  4.43161165
   3.51749283  7.11780414  3.51749262
   3.52075853  8.90434959  5.30287061
   5.30287061  8.90434955  3.52075840
   6.30997629  8.13490516  6.30997663
   4.32503355  8.13491022  4.32503332
   4.43128259  9.76436790  6.20372103
   6.20372091  9.76436779  4.43128264
   7.08893282  7.12829833  3.54606807
   7.11424821  8.90435547  5.33213118
   8.86213208  7.09475878  5.31855822
   8.86473003  8.87348496  3.55233070
   9.75185606  7.97970976  6.20469650
   7.96922483  7.98397813  4.43184922
   8.00106214  9.78015729  6.20338809
   9.75172793  9.75742361  4.43134033
   0.00366054  0.00483509  7.09082444
   0.00420205  1.77571045  8.86367487
   1.77473565  0.00388220  8.86026494
   1.77282339  1.77646656  7.08940720
   2.65867338  0.88988079  9.74537610
   0.88962253  0.88988189  7.97632742
   0.88833137  2.66327813  9.74666571
   2.66201588  2.66298846  7.97298566
   3.54528335  0.00848739  7.08971942
   3.54559774  1.77646641  8.86217557
   5.32082116  0.01710014  8.87724395
   5.32049484  1.77235290  7.09485831
   6.20556439  0.89114862  9.75884797
   4.43216004  0.89203537  7.97969293
   4.43330289  2.65390138  9.75542984
   6.21244995  2.64153902  7.99645196
   7.09814513  0.01466002  7.09814518
   7.09539908  1.76784300  8.87665165
   8.86696320  0.00184183  8.86696327
   8.87665162  1.76784295  7.09539909
   9.75104350  0.89004032  9.75104351
   7.98434851  0.89038075  7.98434849
   7.98019871  2.66187108  9.75607974
   9.75607971  2.66187100  7.98019878
   0.00596660  3.54776562  7.09155169
   0.00973850  5.32138673  8.86621482
   1.77676436  3.55012143  8.85823464
   1.78480343  5.32200307  7.08095097
   2.66183036  4.43797749  9.73938946
   0.89560367  4.43797655  7.97317116
   0.88976010  6.20899090  9.74523518
   2.68697628  6.21902837  7.94802315
   3.54884881  3.54678968  7.08615523
   3.55405394  5.32200400  8.85019356
   5.31784402  3.52904264  8.88089321
   5.39962616  5.21575343  7.19384023
   6.20771859  4.43216669  9.75649460
   4.44445171  4.41666372  7.98721821
   4.43326963  6.20748799  9.74315920
   6.21755188  6.19351067  7.99996562
   7.12127547  3.49880939  7.12127558
   7.11183729  5.32246052  8.88349504
   8.87209617  3.54618588  8.87209629
   8.88349498  5.32246050  7.11183753
   9.75413405  4.43494993  9.75413406
   7.99202035  4.42787033  7.99202048
   7.98828753  6.20717241  9.76387704
   9.76387707  6.20717239  7.98828765
   0.00654782  7.09341825  7.09100356
   0.00548111  8.86560291  8.86324986
   1.78024846  7.08979687  8.85475085
   1.77026861  8.87348627  7.08267243
   2.66209422  7.98085667  9.74201145
   0.89298591  7.98085548  7.97290751
   0.88842577  9.75274529  9.74657366
   2.66147026  9.75383213  7.97353210
   3.54606827  7.12829824  7.08893301
   3.55233080  8.87348490  8.86472996
   5.31855808  7.09475879  8.86213199
   5.33213118  8.90435533  7.11424827
   6.20469642  7.97970977  9.75185599
   4.43184920  7.98397805  7.96922480
   4.43134029  9.75742357  9.75172784
   6.20338795  9.78015723  8.00106216
   7.11750694  7.11780453  7.11750726
   7.09371275  8.87163183  8.87317247
   8.87805783  7.09560482  8.87805794
   8.87317237  8.87163181  7.09371290
   9.75558982  7.98127143  9.75558989
   7.99875015  7.98222797  7.99875034
   7.97951299  9.75339003  9.75569997
   9.75569996  9.75339006  7.97951310
   5.31752257  6.44017214  5.31752291
 


--------------------------------------------------------------------------------------------------------


 use parallel FFT for orbitals z direction half grid
 k-point   1 :   0.0000 0.0000 0.0000  plane waves:    9775

 maximum and minimum number of plane-waves per node :      1225     1219

 maximum number of plane-waves:      9775
 maximum index in each direction: 
   IXMAX=   16   IYMAX=   16   IZMAX=   16
   IXMIN=  -16   IYMIN=  -16   IZMIN=    0


 parallel 3D FFT for wavefunctions:
    minimum data exchange during FFTs selected (reduces bandwidth)
 parallel 3D FFT for charge:
    minimum data exchange during FFTs selected (reduces bandwidth)


 total amount of memory used by VASP MPI-rank0    61890. kBytes
=======================================================================

   base      :      30000. kBytes
   nonl-proj :       4817. kBytes
   fftplans  :       4899. kBytes
   grid      :      13063. kBytes
   one-center:       1327. kBytes
   wavefun   :       7784. kBytes
 
     INWAV:  cpu time    0.3878: real time    0.4527
 Broyden mixing: mesh for mixing (old mesh)
   NGX = 33   NGY = 33   NGZ = 33
  (NGX  =140   NGY  =140   NGZ  =140)
  gives a total of  35937 points

 charge density for first step will be calculated from the start-wavefunctions


--------------------------------------------------------------------------------------------------------


 Maximum index for augmentation-charges          767 (set IRDMAX)


--------------------------------------------------------------------------------------------------------


 initial charge from wavefunction
 First call to EWALD:  gamma=   0.167
 Maximum number of real-space cells 3x 3x 3
 Maximum number of reciprocal cells 3x 3x 3

    FEWALD:  cpu time    0.0110: real time    0.0166


--------------------------------------- Iteration      1(   1)  ---------------------------------------


    POTLOK:  cpu time    0.1595: real time    0.2648
    SETDIJ:  cpu time    0.0548: real time    0.1707
     EDDAV:  cpu time    3.8678: real time    4.3645
       DOS:  cpu time    0.0006: real time    0.0006
    CHARGE:  cpu time    0.1704: real time    0.1713
    MIXING:  cpu time    0.0055: real time    0.0055
    --------------------------------------------
      LOOP:  cpu time    4.2586: real time    4.9775

 eigenvalue-minimisations  :  1104
 total energy-change (2. order) :-0.1860379E+04  (-0.1601123E-08)
 number of electron     867.0000006 magnetization       1.0000002
 augmentation part       18.4885528 magnetization       0.2397779

 DIPCOR: dipole corrections for dipol
 direction  3 min pos     1,
 dipolmoment           0.000000      0.000000      0.319299 electrons x Angstroem
 Tr[quadrupol]    -17435.760913

 energy correction for charged system         7.683400 eV
 dipol+quadrupol energy correction           -0.008469 eV
 added-field ion interaction        418.036072 eV  (added to PSCEN)


 Broyden mixing:
  rms(total) = 0.33187E-04    rms(broyden)= 0.33023E-04
  rms(prec ) = 0.44966E-04
  weight for this iteration     100.00

 Free energy of the ion-electron system (eV)
  ---------------------------------------------------
  alpha Z        PSCENC =      3703.16401079
  Ewald energy   TEWEN  =    -38581.43096040
  -Hartree energ DENC   =     -2886.12463329
  -exchange      EXHF   =         0.00000000
  -V(xc)+E(xc)   XCENC  =      3056.34915123
  PAW double counting   =     91096.98934129   -91221.57377191
  entropy T*S    EENTRO =         0.00000000
  eigenvalues    EBANDS =       459.54939192
  atomic energy  EATOM  =     32512.69873708
  Solvation  Ediel_sol  =         0.00000000
  ---------------------------------------------------
  free energy    TOTEN  =     -1860.37873329 eV

  energy without entropy =    -1860.37873329  energy(sigma->0) =    -1860.37873329


--------------------------------------------------------------------------------------------------------




--------------------------------------- Iteration      1(   2)  ---------------------------------------


    POTLOK:  cpu time    0.1640: real time    0.1652
    SETDIJ:  cpu time    0.0525: real time    0.0526
     EDDAV:  cpu time    4.0075: real time    4.0953
       DOS:  cpu time    0.0004: real time    0.0004
    CHARGE:  cpu time    0.1638: real time    0.2658
    MIXING:  cpu time    0.0052: real time    0.0469
    --------------------------------------------
      LOOP:  cpu time    4.3934: real time    4.6262

 eigenvalue-minimisations  :  1104
 total energy-change (2. order) : 0.2100508E-02  (-0.6258459E-08)
 number of electron     867.0000006 magnetization       1.0000002
 augmentation part       18.4885167 magnetization       0.2397578

 DIPCOR: dipole corrections for dipol
 direction  3 min pos     1,
 dipolmoment           0.000000      0.000000      0.319200 electrons x Angstroem
 Tr[quadrupol]    -17435.760920

 energy correction for charged system         7.683400 eV
 dipol+quadrupol energy correction           -0.008464 eV
 added-field ion interaction        418.038173 eV  (added to PSCEN)


 Broyden mixing:
  rms(total) = 0.55430E-04    rms(broyden)= 0.55276E-04
  rms(prec ) = 0.69212E-04
  weight for this iteration     100.00

 eigenvalues of (default mixing * dielectric matrix)
  average eigenvalue GAMMA=   0.3188
  0.3188

 Free energy of the ion-electron system (eV)
  ---------------------------------------------------
  alpha Z        PSCENC =      3703.16611656
  Ewald energy   TEWEN  =    -38581.43096040
  -Hartree energ DENC   =     -2886.12472963
  -exchange      EXHF   =         0.00000000
  -V(xc)+E(xc)   XCENC  =      3056.34915552
  PAW double counting   =     91096.99090828   -91221.57531685
  entropy T*S    EENTRO =         0.00000000
  eigenvalues    EBANDS =       459.54945666
  atomic energy  EATOM  =     32512.69873708
  Solvation  Ediel_sol  =         0.00000000
  ---------------------------------------------------
  free energy    TOTEN  =     -1860.37663278 eV

  energy without entropy =    -1860.37663278  energy(sigma->0) =    -1860.37663278


--------------------------------------------------------------------------------------------------------




--------------------------------------- Iteration      1(   3)  ---------------------------------------


    POTLOK:  cpu time    0.2362: real time    0.2500
    SETDIJ:  cpu time    0.0532: real time    0.0533
     EDDAV:  cpu time    3.9405: real time    4.1975
       DOS:  cpu time    0.0004: real time    0.0004
    CHARGE:  cpu time    0.1721: real time    0.1723
    MIXING:  cpu time    0.0049: real time    0.0049
    --------------------------------------------
      LOOP:  cpu time    4.4073: real time    4.6784

 eigenvalue-minimisations  :  1104
 total energy-change (2. order) :-0.1601576E-02  (-0.2492987E-08)
 number of electron     867.0000006 magnetization       1.0000002
 augmentation part       18.4885315 magnetization       0.2397653

 DIPCOR: dipole corrections for dipol
 direction  3 min pos     1,
 dipolmoment           0.000000      0.000000      0.319276 electrons x Angstroem
 Tr[quadrupol]    -17435.760912

 energy correction for charged system         7.683400 eV
 dipol+quadrupol energy correction           -0.008468 eV
 added-field ion interaction        418.036571 eV  (added to PSCEN)

[...]
      1.76803      0.00184      1.76803         0.010239      0.017093      0.166332
      1.77132      1.77571     10.63079        -0.008363     -0.000042     -2.261435
      2.65065      0.89038      2.65065         0.010895     -0.019367      0.077518
      0.88395      0.89004      0.88395         0.009642      0.000300      1.125251
      0.87891      2.66187      2.65480        -0.020635     -0.025294      0.125245
      2.65480      2.66187      0.87891        -0.006422      0.020274      1.166692
      3.54418      0.00483     10.63134         0.000586     -0.020538     -2.297008
      3.53960      1.76784      1.75834         0.004269     -0.028360      0.142828
      5.31418      0.01710      1.75775        -0.018332      0.013457      0.169479
      5.31750      1.77212     10.63500         0.001392      0.018897     -2.269937
      6.20284      0.89204      2.65531         0.020845     -0.008886      0.047705
      4.42944      0.89115      0.87615         0.002103      0.031833      1.202970
      4.42255      2.64154      2.63855         0.047743      0.033139      0.068363
      6.20170      2.65390      0.87957         0.036632      0.011643      1.222142
      7.09082      0.00484      0.00366        -0.000490     -0.017941      2.019141
      7.08941      1.77647      1.77282        -0.034636      0.006559      0.161694
      8.86026      0.00388      1.77474        -0.022214     -0.026242      0.127177
      8.86367      1.77571      0.00420         0.007926     -0.002132      1.986076
      9.74538      0.88988      2.65867         0.020481      0.031250      0.116420
      7.97633      0.88988      0.88962         0.007439     -0.012767      1.128273
      7.97299      2.66299      2.66202        -0.000678      0.023797      0.068764
      9.74667      2.66328      0.88833        -0.002687      0.001407      1.113205
     10.63500      3.54795     10.63500         0.000774     -0.012588     -2.271044
     10.62525      5.32139      1.76878        -0.004719      0.002440      0.168165
      1.76290      3.54618      1.76290         0.024259      0.022525      0.103580
      1.76878      5.32139     10.62525         0.015705      0.006806     -2.231577
      2.64298      4.42787      2.64298         0.009746      0.018828      0.067997
      0.88086      4.43495      0.88086         0.028704     -0.002232      1.153692
      0.87112      6.20717      2.64671         0.024497      0.016420      0.107935
      2.64671      6.20717      0.87112         0.005322     -0.025839      1.180144
      3.54345      3.54777     10.62902         0.015323      0.007609     -2.241097
      3.52316      5.32246      1.75150        -0.034344     -0.179453     -0.036731
      5.31716      3.52904      1.75410        -0.075489     -0.005880      0.201354
      5.31750      5.32160     10.63500        -0.001557      0.032652     -2.270574
      6.19055      4.41667      2.64779         0.171041     -0.016911      0.125512
      4.42729      4.43217      0.87850        -0.070936      0.005248      1.153949
      4.41745      6.19352      2.63503         0.044934      0.145923      0.227923
      6.20174      6.20749      0.89183        -0.002223      0.000768      1.072212
      7.09155      3.54777      0.00597        -0.013950      0.009412      1.965786
      7.08095      5.32200      1.78480        -0.010262      0.004373      0.167437
      8.85823      3.55012      1.77676        -0.003757     -0.010047      0.174959
      8.86621      5.32139      0.00974        -0.018321      0.003125      1.955882
      9.73939      4.43798      2.66183        -0.007248      0.007056      0.093583
      7.97317      4.43798      0.89560        -0.004526     -0.012034      1.108281
      7.94802      6.21903      2.68698         0.028841      0.014478      0.087700
      9.74524      6.20899      0.88976         0.001908      0.016586      1.153524
     10.63500      7.09354     10.63500         0.000029      0.006019     -2.270529
     10.62952      8.86560      1.77175         0.007739     -0.004672      0.162340
      1.75694      7.09561      1.75694        -0.001179      0.029162      0.168057
      1.77175      8.86560     10.62952         0.006989      0.002081     -2.301642
      2.63625      7.98223      2.63625        -0.027148     -0.030075      0.099809
      0.87941      7.98127      0.87941         0.000876     -0.009278      1.171062
      0.87930      9.75339      2.65549         0.001711     -0.027157      0.101375
      2.65549      9.75339      0.87930         0.002933      0.000378      1.159573
      3.54400      7.09342     10.62845         0.024598     -0.001343     -2.284746
      3.54129      8.87164      1.76182         0.024219      0.002368      0.164194
      5.31645      7.09476      1.77287        -0.001429     -0.008390      0.192676
      5.31750      8.86837     10.63500         0.000646     -0.016957     -2.270616
      6.20315      7.98398      2.66577        -0.104206     -0.120548      0.230601
      4.43031      7.97971      0.88314        -0.013889      0.007296      1.126603
      4.43161      9.78016      2.63394        -0.023780      0.050933      0.055140
      6.20366      9.75742      0.88327         0.031694     -0.003864      1.155803
      7.09100      7.09342      0.00655        -0.024301      0.000496      2.009488
      7.08267      8.87349      1.77027         0.036954      0.055446      0.119621
      8.85475      7.08980      1.78025         0.014216     -0.019291      0.141633
      8.86325      8.86560      0.00548        -0.005867      0.000492      2.025571
      9.74201      7.98086      2.66209        -0.000691      0.005452      0.083514
      7.97291      7.98086      0.89299         0.000419      0.015768      1.100979
      7.97353      9.75383      2.66147        -0.001796      0.013441      0.078471
      9.74657      9.75275      0.88843        -0.019521     -0.000157      1.121044
     10.63134      0.00483      3.54418         0.002955      0.013667      0.075986
     10.63500      1.77212      5.31750         0.000109      0.010981      0.090763
      1.75775      0.01710      5.31418         0.040320     -0.014200      0.103689
      1.75834      1.76784      3.53960        -0.031124     -0.015736      0.074352
      2.65531      0.89204      6.20284         0.013500     -0.016070      0.079640
      0.87615      0.89115      4.42944        -0.016578      0.038809      0.051397
      0.87957      2.65390      6.20170         0.020748      0.010178      0.130827
      2.63855      2.64154      4.42255         0.020634      0.043717      0.146525
      3.53686      0.01466      3.53686         0.027887      0.007636      0.082840
      3.54014      1.77235      5.31451         0.004140     -0.010829      0.079722
      5.31750      0.00890      5.31750        -0.000278      0.030189      0.088718
      5.31451      1.77235      3.54014         0.000091      0.001019      0.078426
      6.20670      0.89197      6.20670         0.024226     -0.047120      0.061093
      4.42831      0.89197      4.42831        -0.024327     -0.045868      0.114400
      4.43098      2.65766      6.20403        -0.026957      0.022506      0.081672
      6.20403      2.65766      4.43098         0.026423      0.022283      0.093790
      7.08972      0.00849      3.54528        -0.020847     -0.025138      0.113538
      7.09486      1.77235      5.32049        -0.004924     -0.009940      0.094912
      8.87724      0.01710      5.32082        -0.039091     -0.015855      0.074991
      8.86218      1.77647      3.54560         0.024629      0.000367      0.080336
      9.75885      0.89115      6.20556         0.018447      0.039910      0.120311
      7.97969      0.89204      4.43216        -0.012625     -0.016565      0.095061
      7.99645      2.64154      6.21245        -0.022384      0.043709      0.024720
      9.75543      2.65390      4.43330        -0.023705      0.012922      0.040811
     10.62903      3.54777      3.54345        -0.007390     -0.024322      0.077551
     10.63500      5.32160      5.31750        -0.000613      0.004582      0.087300
      1.75410      3.52904      5.31716         0.016459     -0.018888     -0.041074
      1.75150      5.32246      3.52316        -0.026842     -0.116726      0.131114
      2.64779      4.41667      6.19055         0.023509      0.022904      0.206783
      0.87850      4.43217      4.42729         0.013888      0.022363      0.072549
      0.89183      6.20749      6.20174         0.003200     -0.018246      0.087292
      2.63503      6.19352      4.41745         0.036957      0.198415      0.118967
      3.51373      3.49881      3.51373        -0.052017      0.038625      0.057003
      3.44116      5.21575      5.23538        -0.057268     -0.286354     -0.126156
      5.31751      3.52876      5.31751         0.003163     -0.039077      0.090546
      5.23538      5.21575      3.44116        -0.338593     -0.222575     -0.135780
      6.25977      4.36316      6.25977        -0.078190     -0.077961     -0.010024
      4.37524      4.36316      4.37524         0.056481     -0.080099      0.159685
      7.08616      3.54679      3.54885        -0.000839     -0.008064      0.056769
      7.19384      5.21575      5.39963         0.049070     -0.280983      0.308857
      8.88089      3.52904      5.31784        -0.015334     -0.019278      0.224617
      8.85019      5.32200      3.55405         0.033468      0.035901      0.061616
      9.75649      4.43217      6.20772        -0.012077      0.022750      0.102460
      7.98722      4.41666      4.44445        -0.028137      0.026960     -0.047233
      7.99997      6.19351      6.21755        -0.031988      0.209098      0.055028
      9.74316      6.20749      4.43327        -0.001671     -0.018352      0.087960
     10.62845      7.09342      3.54400        -0.008243      0.005709      0.083145
     10.63500      8.86837      5.31750         0.000227     -0.001567      0.087812
      1.77287      7.09476      5.31645         0.038323     -0.023456      0.084052
      1.76182      8.87164      3.54129        -0.021851      0.000646      0.067625
      2.66577      7.98398      6.20315         0.074415     -0.079450     -0.001483
      0.88314      7.97971      4.43031         0.009625      0.035577      0.071178
      0.88327      9.75742      6.20366         0.011983     -0.040747      0.091586
      2.63394      9.78016      4.43161         0.003901      0.013831      0.095576
      3.51749      7.11780      3.51749         0.052485     -0.107544     -0.023099
      3.52076      8.90435      5.30287         0.005565      0.090731      0.234115
      5.30287      8.90435      3.52076         0.022902      0.031554      0.074778
      6.30998      8.13491      6.30998        -0.131329     -0.456495      0.050481
      4.32503      8.13491      4.32503         0.140475     -0.466859      0.112165
      4.43128      9.76437      6.20372        -0.034100      0.055877      0.079966
      6.20372      9.76437      4.43128         0.035130      0.052983      0.097045
      7.08893      7.12830      3.54607         0.082917     -0.130793     -0.020611
      7.11425      8.90436      5.33213         0.007630      0.094173     -0.046637
      8.86213      7.09476      5.31856        -0.040765     -0.022117      0.092592
      8.86473      8.87348      3.55233        -0.017530      0.033491      0.077429
      9.75186      7.97971      6.20470        -0.009652      0.035543      0.104720
      7.96922      7.98398      4.43185        -0.070429     -0.067793      0.169540
      8.00106      9.78016      6.20339        -0.001842      0.018929      0.071275
      9.75173      9.75742      4.43134        -0.011303     -0.037839      0.081267
      0.00366      0.00484      7.09082        -0.002006      0.013751      0.100102
      0.00420      1.77571      8.86367         0.000237     -0.001035     -0.002302
      1.77474      0.00388      8.86026         0.023460     -0.027910      0.040068
      1.77282      1.77647      7.08941        -0.025564     -0.000054      0.093742
      2.65867      0.88988      9.74538        -0.006503     -0.013653     -1.045805
      0.88962      0.88988      7.97633        -0.021172      0.032809      0.057095
      0.88833      2.66328      9.74667         0.002809      0.001116     -1.030439
      2.66202      2.66299      7.97299         0.002774      0.024547      0.107224
      3.54528      0.00849      7.08972         0.021884     -0.024176      0.060527
      3.54560      1.77647      8.86218         0.034352      0.007287      0.004210
      5.32082      0.01710      8.87724         0.021329      0.013566     -0.001817
      5.32049      1.77235      7.09486        -0.001005     -0.000078      0.094904
      6.20556      0.89115      9.75885        -0.003561      0.029761     -1.123726
      4.43216      0.89204      7.97969        -0.021990     -0.011451      0.126905
      4.43330      2.65390      9.75543        -0.041073      0.014883     -1.145123
      6.21245      2.64154      7.99645        -0.049709      0.035856      0.105401
      7.09815      0.01466      7.09815        -0.028027      0.005375      0.092325
      7.09540      1.76784      8.87665        -0.001446     -0.028851      0.023467
      8.86696      0.00184      8.86696        -0.010699      0.018027      0.000028
      8.87665      1.76784      7.09540         0.032868     -0.014320      0.102465
      9.75104      0.89004      9.75104        -0.009497      0.000546     -1.044263
      7.98435      0.89038      7.98435        -0.012716     -0.020807      0.097656
      7.98020      2.66187      9.75608         0.005742      0.020880     -1.088489
      9.75608      2.66187      7.98020         0.021893     -0.026584      0.047918
      0.00597      3.54777      7.09155         0.007948     -0.025224      0.096704
      0.00974      5.32139      8.86621         0.005523      0.000938     -0.002341
      1.77676      3.55012      8.85823         0.003496     -0.010443     -0.008801
      1.78480      5.32200      7.08095        -0.031370      0.034673      0.111849
      2.66183      4.43798      9.73939         0.004594     -0.013318     -1.024363
      0.89560      4.43798      7.97317         0.007198      0.009373      0.081720
      0.88976      6.20899      9.74524        -0.000953      0.014239     -1.072699
      2.68698      6.21903      7.94802        -0.031368      0.011608      0.086942
      3.54885      3.54679      7.08616        -0.001419     -0.008086      0.115769
      3.55405      5.32200      8.85019         0.009817      0.005091      0.000423
      5.31784      3.52904      8.88089         0.081575     -0.004952     -0.035125
      5.39963      5.21575      7.19384         0.337934     -0.235042      0.311842
      6.20772      4.43217      9.75649         0.070621      0.002682     -1.074647
      4.44445      4.41666      7.98722        -0.183792     -0.017704      0.046151
      4.43327      6.20749      9.74316         0.001459      0.001523     -0.986069
      6.21755      6.19351      7.99997        -0.052964      0.164470     -0.058591
      7.12128      3.49881      7.12128         0.060671      0.042941      0.127984
      7.11184      5.32246      8.88350         0.032871     -0.186878      0.196041
      8.87210      3.54619      8.87210        -0.025410      0.023390      0.063622
      8.88349      5.32246      7.11184         0.027800     -0.120083      0.040266
      9.75413      4.43495      9.75413        -0.028787     -0.001657     -1.074211
      7.99202      4.42787      7.99202        -0.008030      0.016863      0.109185
      7.98829      6.20717      9.76388        -0.006543     -0.021682     -1.105027
      9.76388      6.20717      7.98829        -0.026791      0.018248      0.065035
      0.00655      7.09342      7.09100         0.008475      0.006461      0.090693
      0.00548      8.86560      8.86325        -0.007990     -0.003885      0.003624
      1.78025      7.08980      8.85475        -0.012294     -0.018928      0.025228
      1.77027      8.87349      7.08267         0.020910      0.031495      0.101262
      2.66209      7.98086      9.74201        -0.000624      0.016559     -1.017745
      0.89299      7.98086      7.97291         0.001285      0.005672      0.090402
      0.88843      9.75275      9.74657         0.020394     -0.000748     -1.038762
      2.66147      9.75383      7.97353         0.002901      0.014670      0.098352
      3.54607      7.12830      7.08893        -0.061556     -0.132917      0.213713
      3.55233      8.87348      8.86473        -0.038666      0.057175      0.050596
      5.31856      7.09476      8.86213         0.002008     -0.006701     -0.028540
      5.33213      8.90436      7.11425        -0.015114      0.030967      0.101942
      6.20470      7.97971      9.75186         0.014536      0.007079     -1.046627
      4.43185      7.98398      7.96922         0.105126     -0.118224     -0.056506
      4.43134      9.75742      9.75173        -0.033941     -0.000599     -1.075081
      6.20339      9.78016      8.00106         0.019312      0.056764      0.121882
      7.11751      7.11780      7.11751        -0.053453     -0.089653      0.190364
      7.09371      8.87163      8.87317        -0.025524      0.003211      0.001822
      8.87806      7.09560      8.87806         0.001364      0.031243     -0.002265
      8.87317      8.87163      7.09371         0.021609      0.001686      0.105854
      9.75559      7.98127      9.75559        -0.001283     -0.008799     -1.090686
      7.99875      7.98223      7.99875         0.026484     -0.035238      0.074561
      7.97951      9.75339      9.75570        -0.003584      0.000425     -1.081065
      9.75570      9.75339      7.97951        -0.001479     -0.028611      0.072857
      5.31752      6.44017      5.31752        -0.018538      1.897988      0.109156
 -----------------------------------------------------------------------------------
    total drift:                                0.000002      0.000071    -18.700757


--------------------------------------------------------------------------------------------------------



  FREE ENERGIE OF THE ION-ELECTRON SYSTEM (eV)
  ---------------------------------------------------
  free  energy   TOTEN  =     -1860.37812991 eV

  energy  without entropy=    -1860.37812991  energy(sigma->0) =    -1860.37812991
 


--------------------------------------------------------------------------------------------------------


    POTLOK:  cpu time    0.2216: real time    0.2229


--------------------------------------------------------------------------------------------------------


 writing wavefunctions
     LOOP+:  cpu time   84.3100: real time   89.9328
    4ORBIT:  cpu time    0.0000: real time    0.0000

 total amount of memory used by VASP MPI-rank0    61890. kBytes
=======================================================================

   base      :      30000. kBytes
   nonl-proj :       4817. kBytes
   fftplans  :       4899. kBytes
   grid      :      13063. kBytes
   one-center:       1327. kBytes
   wavefun   :       7784. kBytes
 
  
  
 General timing and accounting informations for this job:
 ========================================================
  
                  Total CPU time used (sec):       95.714
                            User time (sec):       88.881
                          System time (sec):        6.833
                         Elapsed time (sec):      103.978
  
                   Maximum memory used (kb):      318688.
                   Average memory used (kb):          N/A
  
                          Minor page faults:        94964
                          Major page faults:           10
                 Voluntary context switches:         7618
