 vasp.6.2.1 16May21 (build Sep 27 2021 21:11:04) gamma-only                     
  
 executed on             LinuxIFC date 2023.06.19  04:06:47
 running   16 mpi-ranks, with    1 threads/rank
 distrk:  each k-point on   16 cores,    1 groups
 distr:  one band on NCORE=   8 cores,    2 groups


--------------------------------------------------------------------------------------------------------


 INCAR:
   GGA = PE
   ISTART = 1
   ISPIN = 2
   ENCUT = 370
   ENAUG = 740
   EDIFF = 1E-6
   IBRION = -1
   POTIM = 0.2
   NSW = 0
   EDIFFG = -1E-2
   ISMEAR = -2
   SIGMA = 0.01
   ISIF = 1
   LREAL = .FALSE.
   ISYM = 0
   NELECT = 866
   FERWE = 431*1.00 1*1.00 1*1.00 1*1.00 1000*0.00
   FERDO = 431*1.00 1*1.00 1*0.00 1*0.00 1000*0.00
   EFIELD = 1.0
   IDIPOL = 3
   LDIPOL = .TRUE.
   DIPOL = 0.5 0.6 0.5
   PREC = Accurate
   NCORE = 8
   NELM = 120
   NWRITE = 2
   SYMPREC = 1.0e-8

 POTCAR:    PAW_PBE C 08Apr2002                   
 POTCAR:    PAW_PBE Pa 07Sep2000                  
 -----------------------------------------------------------------------------
|                                                                             |
|           W    W    AA    RRRRR   N    N  II  N    N   GGGG   !!!           |
|           W    W   A  A   R    R  NN   N  II  NN   N  G    G  !!!           |
|           W    W  A    A  R    R  N N  N  II  N N  N  G       !!!           |
|           W WW W  AAAAAA  RRRRR   N  N N  II  N  N N  G  GGG   !            |
|           WW  WW  A    A  R   R   N   NN  II  N   NN  G    G                |
|           W    W  A    A  R    R  N    N  II  N    N   GGGG   !!!           |
|                                                                             |
|     You use a magnetic or noncollinear calculation, but did not specify     |
|     the initial magnetic moment with the MAGMOM tag. Note that a            |
|     default of 1 will be used for all atoms. This ferromagnetic setup       |
|     may break the symmetry of the crystal, in particular it may rule        |
|     out finding an antiferromagnetic solution. Thence, we recommend         |
|     setting the initial magnetic moment manually or verifying carefully     |
|     that this magnetic setup is desired.                                    |
|                                                                             |
 -----------------------------------------------------------------------------

 POTCAR:    PAW_PBE C 08Apr2002                   
   SHA256 =  253f7b50bb8d59471dbedb8285d89021f4a42ed1a2c5d38a03a736e69125dd95 C/POTCAR              
   COPYR  = (c) Copyright 08Apr2002 Georg Kresse                                                    
   COPYR  = This file is part of the software VASP. Any use, copying, and all other rights are regul
   COPYR  = If you do not have a valid VASP license, you may not use, copy or distribute this file. 
   VRHFIN =C: s2p2                                                                                  
   LEXCH  = PE                                                                                      
   EATOM  =   147.1560 eV,   10.8157 Ry                                                             
                                                                                                    
   TITEL  = PAW_PBE C 08Apr2002                                                                     
   LULTRA =        F    use ultrasoft PP ?                                                          
   IUNSCR =        1    unscreen: 0-lin 1-nonlin 2-no                                               
   RPACOR =    1.200    partial core radius                                                         
   POMASS =   12.011; ZVAL   =    4.000    mass and valenz                                          
   RCORE  =    1.500    outmost cutoff radius                                                       
   RWIGS  =    1.630; RWIGS  =    0.863    wigner-seitz radius (au A)                               
   ENMAX  =  400.000; ENMIN  =  300.000 eV                                                          
   ICORE  =        2    local potential                                                             
   LCOR   =        T    correct aug charges                                                         
   LPAW   =        T    paw PP                                                                      
   EAUG   =  644.873                                                                                
   DEXC   =    0.000                                                                                
   RMAX   =    1.529    core radius for proj-oper                                                   
   RAUG   =    1.300    factor for augmentation sphere                                              
   RDEP   =    1.501    radius for radial grids                                                     
   RDEPT  =    1.300    core radius for aug-charge                                                  
                                                                                                    
   Atomic configuration                                                                             
    4 entries                                                                                       
     n  l   j            E        occ.                                                              
     1  0  0.50      -273.3789   2.0000                                                             
     2  0  0.50       -13.7508   2.0000                                                             
     2  1  0.50        -5.2854   2.0000                                                             
     3  2  1.50        -5.4423   0.0000                                                             
   Description                                                                                      
     l       E           TYP  RCUT    TYP  RCUT                                                     
     0    -13.7508458     23  1.200                                                                 
     0     -8.2022199     23  1.200                                                                 
     1     -5.2854383     23  1.500                                                                 
     1     34.0145650     23  1.500                                                                 
     2     -5.4423304      7  1.500                                                                 
  local pseudopotential read in
  partial core-charges read in
  partial kinetic energy density read in
  atomic valenz-charges read in
  non local Contribution for L=           0  read in
    real space projection operators read in
  non local Contribution for L=           0  read in
    real space projection operators read in
  non local Contribution for L=           1  read in
    real space projection operators read in
  non local Contribution for L=           1  read in
    real space projection operators read in
    PAW grid and wavefunctions read in
 
   number of l-projection  operators is LMAX  =           4
   number of lm-projection operators is LMMAX =           8
 
 POTCAR:    PAW_PBE Pa 07Sep2000                  
   SHA256 =  04e32654b760de29c7f02015f2c4b9b92aeb120699210996a29249ba80bfa323 Pa/POTCAR             
   COPYR  = (c) Copyright 07Sep2000 Georg Kresse                                                    
   COPYR  = This file is part of the software VASP. Any use, copying, and all other rights are regul
   COPYR  = If you do not have a valid VASP license, you may not use, copy or distribute this file. 
   VRHFIN =Pa:  [Xe,5d,4f]                                                                          
   LEXCH  = PE                                                                                      
   EATOM  =  1180.0855 eV,   86.7338 Ry                                                             
                                                                                                    
   TITEL  = PAW_PBE Pa 07Sep2000                                                                    
   LULTRA =        F    use ultrasoft PP ?                                                          
   IUNSCR =        1    unscreen: 0-lin 1-nonlin 2-no                                               
   RPACOR =    2.200    partial core radius                                                         
   POMASS =  229.000; ZVAL   =   13.000    mass and valenz                                          
   RCORE  =    2.800    outmost cutoff radius                                                       
   RWIGS  =    2.900; RWIGS  =    1.535    wigner-seitz radius (au A)                               
   ENMAX  =  252.193; ENMIN  =  189.145 eV                                                          
   RCLOC  =    1.808    cutoff for local pot                                                        
   LCOR   =        T    correct aug charges                                                         
   LPAW   =        T    paw PP                                                                      
   EAUG   =  536.979                                                                                
   DEXC   =    0.000                                                                                
   RMAX   =    2.858    core radius for proj-oper                                                   
   RAUG   =    1.300    factor for augmentation sphere                                              
   RDEP   =    2.921    radius for radial grids                                                     
   RDEPT  =    2.247    core radius for aug-charge                                                  
                                                                                                    
   Atomic configuration                                                                             
   18 entries                                                                                       
     n  l   j            E        occ.                                                              
     1  0  0.50   -112985.5190   2.0000                                                             
     2  0  0.50    -21035.6541   2.0000                                                             
     2  1  1.50    -17527.8639   6.0000                                                             
     3  0  0.50     -5294.0126   2.0000                                                             
     3  1  1.50     -4318.2192   6.0000                                                             
     3  2  2.50     -3460.9455  10.0000                                                             
     4  0  0.50     -1342.3530   2.0000                                                             
     4  1  1.50     -1023.6497   6.0000                                                             
     4  2  2.50      -699.1199  10.0000                                                             
     4  3  3.50      -353.3721  14.0000                                                             
     5  0  0.50      -298.9475   2.0000                                                             
     5  1  1.50      -201.1573   6.0000                                                             
     5  2  2.50       -97.1791  10.0000                                                             
     6  0  0.50       -48.3074   2.0000                                                             
     7  0  0.50        -4.5039   2.0000                                                             
     6  1  1.50       -24.3672   6.0000                                                             
     6  2  1.50        -3.1149   2.0000                                                             
     5  3  2.50        -5.1513   1.0000                                                             
   Description                                                                                      
     l       E           TYP  RCUT    TYP  RCUT                                                     
     0    -48.3074378     23  2.800                                                                 
     0     -4.5039177     23  2.800                                                                 
     1    -24.3672020     23  2.500                                                                 
     1    -25.7277846     23  2.500                                                                 
     2     -3.1148861     23  2.500                                                                 
     2      1.7959667     23  2.500                                                                 
     3     -5.1512774     23  2.800                                                                 
     3     -6.5118600     23  2.800                                                                 
  local pseudopotential read in
  partial core-charges read in
  partial kinetic energy density read in
  atomic valenz-charges read in
  non local Contribution for L=           0  read in
    real space projection operators read in
  non local Contribution for L=           0  read in
    real space projection operators read in
  non local Contribution for L=           1  read in
    real space projection operators read in
  non local Contribution for L=           1  read in
    real space projection operators read in
  non local Contribution for L=           2  read in
    real space projection operators read in
  non local Contribution for L=           2  read in
    real space projection operators read in
  non local Contribution for L=           3  read in
    real space projection operators read in
  non local Contribution for L=           3  read in
    real space projection operators read in
    PAW grid and wavefunctions read in
 
   number of l-projection  operators is LMAX  =           8
   number of lm-projection operators is LMMAX =          32
 
 -----------------------------------------------------------------------------
|                                                                             |
|               ----> ADVICE to this user running VASP <----                  |
|                                                                             |
|     You have a (more or less) 'large supercell' and for larger cells it     |
|     might be more efficient to use real-space projection operators.         |
|     Therefore, try LREAL= Auto in the INCAR file.                           |
|     Mind: For very accurate calculation, you might also keep the            |
|     reciprocal projection scheme (i.e. LREAL=.FALSE.).                      |
|                                                                             |
 -----------------------------------------------------------------------------

  PAW_PBE C 08Apr2002                   :
 energy of atom  1       EATOM= -147.1560
 kinetic energy error for atom=    0.0545 (will be added to EATOM!!)
  PAW_PBE Pa 07Sep2000                  :
 energy of atom  2       EATOM=-1180.0855
 kinetic energy error for atom=    0.0045 (will be added to EATOM!!)
 
 
 POSCAR: prv2
  positions in direct lattice
  velocities in cartesian coordinates
 exchange correlation table for  LEXCH =        8
   RHO(1)=    0.500       N(1)  =     2000
   RHO(2)=  100.500       N(2)  =     4000
 


--------------------------------------------------------------------------------------------------------


 ion  position               nearest neighbor table
   1  0.000  0.000  1.000- 162 1.53   6 1.53 196 1.54  72 1.54
   2  1.000  0.167  0.167-   7 1.53  24 1.53  21 1.53   6 1.54
   3  0.166  0.000  0.166-   5 1.53   6 1.53  55 1.54  56 1.54
   4  0.167  0.167  1.000-   8 1.53 148 1.53 146 1.53   6 1.54
   5  0.249  0.084  0.249-  81 1.53   3 1.53  76 1.53  10 1.53
   6  0.083  0.084  0.083-   1 1.53   3 1.53   4 1.54   2 1.54
   7  0.083  0.250  0.250-   2 1.53  76 1.53  27 1.54  97 1.54
   8  0.250  0.250  0.083-   4 1.53  10 1.53  27 1.54  33 1.54
   9  0.333  0.000  1.000- 204 1.53  14 1.53 146 1.53  56 1.53
  10  0.333  0.166  0.165-  15 1.52  14 1.53   8 1.53   5 1.53
  11  0.500  0.002  0.165-  63 1.52  14 1.53  64 1.53  13 1.54
  12  0.500  0.167  0.000-  14 1.53 154 1.53 156 1.53  16 1.53
  13  0.583  0.084  0.250-  18 1.53  84 1.53  89 1.54  11 1.54
  14  0.416  0.084  0.082-  11 1.53  12 1.53  10 1.53   9 1.53
  15  0.416  0.249  0.248-  10 1.52 105 1.53  84 1.54  35 1.54
  16  0.583  0.250  0.083-  35 1.52  12 1.53  41 1.53  18 1.53
  17  0.667  0.000  0.000-  64 1.53 154 1.53  22 1.53 212 1.53
  18  0.667  0.167  0.167-  13 1.53  22 1.53  16 1.53  23 1.53
  19  0.833  0.000  0.167-  22 1.53  21 1.53  72 1.53  71 1.53
  20  0.833  0.167  0.000- 164 1.53  24 1.53  22 1.53 162 1.54
  21  0.916  0.084  0.250-  19 1.53  73 1.53  92 1.53   2 1.53
  22  0.750  0.084  0.084-  19 1.53  17 1.53  18 1.53  20 1.53
  23  0.750  0.250  0.250-  43 1.53 111 1.53  92 1.53  18 1.53
  24  0.917  0.250  0.083-   2 1.53  20 1.53  25 1.54  43 1.54
  25  0.000  0.334  0.000- 186 1.53  30 1.53 148 1.54  24 1.54
  26  0.999  0.500  0.166-  31 1.53  48 1.53  45 1.54  30 1.54
  27  0.166  0.333  0.166-  29 1.53  30 1.53   8 1.54   7 1.54
  28  0.166  0.500  0.999-  32 1.53 172 1.53 170 1.54  30 1.54
  29  0.248  0.416  0.248-  27 1.53  34 1.54 100 1.54 105 1.54
  30  0.083  0.417  0.083-  25 1.53  27 1.53  26 1.54  28 1.54
  31  0.082  0.584  0.249- 100 1.53  26 1.53 119 1.54  51 1.54
  32  0.249  0.584  0.082-  34 1.53  28 1.53  57 1.54  51 1.54
  33  0.333  0.334  0.999-  38 1.53 156 1.53   8 1.54 170 1.54
  34  0.331  0.500  0.165-  32 1.53  39 1.53  38 1.54  29 1.54
  35  0.500  0.332  0.165-  16 1.52  37 1.54  15 1.54  38 1.54
  36  0.500  0.500  0.000-  38 1.53 178 1.53  40 1.54 180 1.54
  37  0.583  0.415  0.249- 108 1.48  42 1.53  35 1.54 111 1.54
  38  0.416  0.417  0.083-  33 1.53  36 1.53  34 1.54  35 1.54
  39  0.415  0.583  0.247- 108 1.51  34 1.53  59 1.54 127 1.56 214 2.85
  40  0.583  0.584  0.084-  59 1.53  42 1.53  65 1.54  36 1.54
  41  0.667  0.334  0.001- 178 1.53  16 1.53 164 1.54  46 1.54
  42  0.666  0.501  0.168-  40 1.53  37 1.53  47 1.54  46 1.54
  43  0.833  0.334  0.167-  45 1.53  46 1.53  23 1.53  24 1.54
  44  0.834  0.500  0.001- 188 1.53  48 1.53  46 1.54 186 1.54
  45  0.916  0.417  0.250-  43 1.53  97 1.54  26 1.54 114 1.54
  46  0.750  0.417  0.084-  43 1.53  41 1.54  44 1.54  42 1.54
  47  0.748  0.585  0.252- 134 1.52  42 1.54 114 1.54  67 1.55
  48  0.916  0.584  0.084-  44 1.53  26 1.53  67 1.54  49 1.54
  49  0.000  0.667  1.000-  54 1.53 210 1.53 172 1.54  48 1.54
  50  0.999  0.834  0.167-  72 1.53  55 1.53  54 1.54  69 1.54
  51  0.165  0.667  0.165-  54 1.52  53 1.53  31 1.54  32 1.54
  52  0.167  0.834  0.999- 196 1.53  56 1.53  54 1.54 194 1.54
  53  0.248  0.751  0.248- 127 1.52  51 1.53  58 1.54 122 1.54
  54  0.083  0.750  0.083-  51 1.52  49 1.53  50 1.54  52 1.54
  55  0.083  0.917  0.250- 122 1.53  50 1.53  73 1.53   3 1.54
  56  0.250  0.917  0.083-  58 1.53  52 1.53   9 1.53   3 1.54
  57  0.333  0.667  0.999- 194 1.53 180 1.54  32 1.54  62 1.54
  58  0.333  0.834  0.166-  56 1.53  62 1.54  53 1.54  63 1.54
  59  0.500  0.667  0.167-  40 1.53  39 1.54  62 1.54  61 1.54
  60  0.500  0.834  0.000-  64 1.53 204 1.53 202 1.53  62 1.53
  61  0.583  0.751  0.251- 134 1.52  66 1.54  59 1.54 129 1.54
  62  0.417  0.750  0.083-  60 1.53  58 1.54  59 1.54  57 1.54
  63  0.417  0.920  0.248-  11 1.52 129 1.52  81 1.54  58 1.54
  64  0.583  0.917  0.083-  17 1.53  66 1.53  60 1.53  11 1.53
  65  0.667  0.667  0.001-  70 1.53  40 1.54 188 1.54 202 1.54
  66  0.666  0.834  0.166-  64 1.53  70 1.54  71 1.54  61 1.54
  67  0.833  0.667  0.167-  69 1.54  70 1.54  48 1.54  47 1.55
  68  0.833  0.834  0.001-  72 1.53 212 1.53 210 1.54  70 1.54
  69  0.916  0.750  0.250- 119 1.53  67 1.54 137 1.54  50 1.54
  70  0.750  0.750  0.084-  65 1.53  67 1.54  66 1.54  68 1.54
  71  0.750  0.917  0.250-  89 1.53  19 1.53  66 1.54 137 1.54
  72  0.916  0.917  0.084-  68 1.53  50 1.53  19 1.53   1 1.54
  73  1.000  0.000  0.333- 141 1.53  78 1.53  21 1.53  55 1.53
  74  0.000  0.167  0.500-  93 1.53  78 1.53  79 1.53  96 1.53
  75  0.165  0.002  0.500- 126 1.52  78 1.53 125 1.53  77 1.54
  76  0.165  0.166  0.333-  80 1.52  78 1.53   7 1.53   5 1.53
  77  0.250  0.084  0.583- 145 1.53  82 1.53 150 1.54  75 1.54
  78  0.082  0.084  0.416-  75 1.53  74 1.53  76 1.53  73 1.53
  79  0.083  0.250  0.583-  99 1.52  74 1.53 166 1.53 145 1.53
  80  0.248  0.249  0.416-  76 1.52 105 1.53  82 1.54  99 1.54
  81  0.333  0.001  0.333-   5 1.53  86 1.54 126 1.54  63 1.54
  82  0.333  0.167  0.500-  77 1.53  86 1.53  80 1.54  87 1.54
  83  0.500  0.001  0.500- 132 1.53 133 1.53  86 1.54  85 1.54
  84  0.500  0.167  0.333-  13 1.53  86 1.53  15 1.54  88 1.54
  85  0.584  0.084  0.584- 153 1.53  90 1.53 158 1.54  83 1.54
  86  0.416  0.084  0.416-  82 1.53  84 1.53  81 1.54  83 1.54
  87  0.417  0.250  0.583- 107 1.53 174 1.53  82 1.54 153 1.54
  88  0.583  0.250  0.417- 107 1.53 111 1.53  84 1.54  90 1.54
  89  0.667  0.001  0.333- 133 1.53  71 1.53  13 1.54  94 1.54
  90  0.667  0.167  0.500-  94 1.53  85 1.53  95 1.54  88 1.54
  91  0.835  0.002  0.500- 140 1.52  93 1.53 141 1.53  94 1.54
  92  0.833  0.167  0.333-  94 1.53  21 1.53  96 1.53  23 1.53
  93  0.918  0.084  0.584-  91 1.53  74 1.53 161 1.53 142 1.53
  94  0.750  0.084  0.417-  92 1.53  90 1.53  89 1.54  91 1.54
  95  0.752  0.249  0.584- 161 1.52 182 1.53  90 1.54 113 1.54
  96  0.917  0.250  0.417- 113 1.52  74 1.53  97 1.53  92 1.53
  97  0.999  0.334  0.333- 102 1.53  96 1.53   7 1.54  45 1.54
  98  0.000  0.500  0.500- 102 1.53 115 1.53 118 1.54 103 1.54
  99  0.165  0.332  0.500-  79 1.52 101 1.54  80 1.54 102 1.54
 100  0.165  0.500  0.331-  31 1.53 104 1.53 102 1.54  29 1.54
 101  0.249  0.415  0.583- 106 1.48 169 1.53  99 1.54 174 1.54
 102  0.083  0.417  0.416-  97 1.53  98 1.53 100 1.54  99 1.54
 103  0.084  0.584  0.583- 121 1.53 169 1.53 190 1.54  98 1.54
 104  0.247  0.583  0.415- 106 1.51 100 1.53 121 1.54 127 1.56 214 2.85
 105  0.330  0.329  0.330- 110 1.50  80 1.53  15 1.53  29 1.54
 106  0.324  0.490  0.492- 101 1.48 104 1.51 110 1.52 214 2.25
 107  0.500  0.332  0.500-  87 1.53  88 1.53 109 1.57 110 1.57
 108  0.492  0.490  0.324-  37 1.48  39 1.51 110 1.52 214 2.25
 109  0.588  0.411  0.588- 182 1.50 112 1.52 177 1.52 107 1.57 214 2.48
 110  0.412  0.411  0.412- 105 1.50 106 1.52 108 1.52 107 1.57 214 2.48
 111  0.666  0.333  0.334-  88 1.53  23 1.53 116 1.54  37 1.54
 112  0.676  0.490  0.508- 116 1.48 117 1.51 109 1.52 214 2.25
 113  0.835  0.332  0.500-  96 1.52 116 1.54  95 1.54 115 1.54
 114  0.832  0.501  0.334- 118 1.53 116 1.53  47 1.54  45 1.54
 115  0.917  0.417  0.584- 166 1.53  98 1.53 185 1.54 113 1.54
 116  0.751  0.415  0.417- 112 1.48 114 1.53 113 1.54 111 1.54
 117  0.753  0.583  0.585- 112 1.51 185 1.53 136 1.54 206 1.56 214 2.85
 118  0.916  0.584  0.417- 136 1.53 114 1.53 119 1.54  98 1.54
 119  0.999  0.667  0.333-  69 1.53 118 1.54  31 1.54 124 1.54
 120  0.000  0.834  0.500- 125 1.53 141 1.53 138 1.53 124 1.53
 121  0.167  0.667  0.500- 103 1.53 104 1.54 124 1.54 123 1.54
 122  0.166  0.834  0.333-  55 1.53 124 1.54  53 1.54 126 1.54
 123  0.251  0.751  0.583- 198 1.52 193 1.54 121 1.54 128 1.54
 124  0.083  0.750  0.417- 120 1.53 122 1.54 121 1.54 119 1.54
 125  0.083  0.917  0.583- 142 1.53 193 1.53 120 1.53  75 1.53
 126  0.248  0.920  0.417-  75 1.52 128 1.52  81 1.54 122 1.54
 127  0.330  0.669  0.330-  53 1.52 131 1.53  39 1.56 104 1.56 214 2.64
 128  0.331  0.837  0.499- 131 1.49 126 1.52 132 1.54 123 1.54
 129  0.499  0.837  0.331- 131 1.49  63 1.52 133 1.54  61 1.54
 130  0.594  0.764  0.594- 201 1.49 135 1.49 206 1.53 214 2.18
 131  0.406  0.764  0.406- 128 1.49 129 1.49 127 1.53 214 2.18
 132  0.417  0.918  0.583- 150 1.53  83 1.53 201 1.54 128 1.54
 133  0.583  0.918  0.417-  89 1.53  83 1.53 135 1.54 129 1.54
 134  0.667  0.670  0.333-  61 1.52 139 1.52  47 1.52 214 2.59
 135  0.669  0.837  0.501- 130 1.49 140 1.52 133 1.54 139 1.54
 136  0.833  0.667  0.500- 118 1.53 117 1.54 138 1.54 139 1.54
 137  0.834  0.834  0.334- 141 1.53  69 1.54  71 1.54 139 1.54
 138  0.917  0.750  0.583- 120 1.53 209 1.54 136 1.54 190 1.54
 139  0.749  0.751  0.417- 134 1.52 137 1.54 136 1.54 135 1.54
 140  0.752  0.920  0.583-  91 1.52 135 1.52 158 1.54 209 1.54
 141  0.917  0.917  0.417-  73 1.53 137 1.53 120 1.53  91 1.53
 142  0.000  0.000  0.667- 125 1.53  93 1.53 147 1.53 213 1.53
 143  0.000  0.167  0.833- 165 1.53 148 1.53 147 1.53 162 1.54
 144  0.167  0.000  0.833- 147 1.53 146 1.53 196 1.53 197 1.53
 145  0.167  0.167  0.667-  77 1.53 147 1.53  79 1.53 149 1.53
 146  0.250  0.084  0.916- 144 1.53   9 1.53 151 1.53   4 1.53
 147  0.084  0.084  0.750- 144 1.53 142 1.53 145 1.53 143 1.53
 148  0.083  0.250  0.917-   4 1.53 143 1.53  25 1.54 168 1.54
 149  0.250  0.250  0.750- 168 1.53 174 1.53 151 1.53 145 1.53
 150  0.333  0.001  0.667- 132 1.53 197 1.53  77 1.54 155 1.54
 151  0.333  0.167  0.833- 155 1.53 146 1.53 156 1.53 149 1.53
 152  0.500  0.002  0.835- 205 1.52 154 1.53 204 1.53 155 1.54
 153  0.500  0.167  0.667- 155 1.53  85 1.53 157 1.54  87 1.54
 154  0.584  0.084  0.918- 152 1.53  12 1.53 159 1.53  17 1.53
 155  0.417  0.084  0.750- 151 1.53 153 1.53 150 1.54 152 1.54
 156  0.417  0.250  0.917- 176 1.52  12 1.53  33 1.53 151 1.53
 157  0.584  0.249  0.752- 159 1.52 182 1.53 153 1.54 176 1.54
 158  0.667  0.001  0.667- 163 1.53  85 1.54 140 1.54 205 1.54
 159  0.667  0.166  0.835- 157 1.52 154 1.53 164 1.53 163 1.53
 160  0.834  0.000  0.834- 163 1.53 162 1.53 212 1.54 213 1.54
 161  0.835  0.166  0.667-  95 1.52  93 1.53 165 1.53 163 1.53
 162  0.917  0.084  0.917-   1 1.53 160 1.53 143 1.54  20 1.54
 163  0.751  0.084  0.751- 158 1.53 160 1.53 161 1.53 159 1.53
 164  0.750  0.250  0.917-  20 1.53 159 1.53 184 1.54  41 1.54
 165  0.917  0.250  0.750- 143 1.53 161 1.53 184 1.54 166 1.54
 166  0.001  0.334  0.667- 115 1.53  79 1.53 165 1.54 171 1.54
 167  0.001  0.500  0.834- 189 1.53 172 1.53 171 1.54 186 1.54
 168  0.167  0.334  0.833- 170 1.53 171 1.53 149 1.53 148 1.54
 169  0.168  0.501  0.666- 103 1.53 101 1.53 173 1.54 171 1.54
 170  0.250  0.417  0.916- 168 1.53  33 1.54  28 1.54 175 1.54
 171  0.084  0.417  0.750- 168 1.53 166 1.54 167 1.54 169 1.54
 172  0.084  0.584  0.916- 167 1.53  28 1.53 192 1.54  49 1.54
 173  0.252  0.585  0.748- 198 1.52 169 1.54 175 1.54 192 1.55
 174  0.334  0.333  0.666-  87 1.53 149 1.53 179 1.54 101 1.54
 175  0.334  0.501  0.832- 180 1.53 179 1.53 173 1.54 170 1.54
 176  0.500  0.332  0.835- 156 1.52 179 1.54 157 1.54 178 1.54
 177  0.508  0.490  0.676- 179 1.48 181 1.51 109 1.52 214 2.25
 178  0.584  0.417  0.917-  41 1.53  36 1.53 183 1.54 176 1.54
 179  0.417  0.415  0.751- 177 1.48 175 1.53 176 1.54 174 1.54
 180  0.417  0.584  0.916- 200 1.53 175 1.53  57 1.54  36 1.54
 181  0.585  0.583  0.753- 177 1.51 183 1.53 200 1.54 206 1.56 214 2.85
 182  0.670  0.329  0.670- 109 1.50 157 1.53  95 1.53 187 1.54
 183  0.669  0.500  0.835- 188 1.53 181 1.53 178 1.54 187 1.54
 184  0.834  0.333  0.834- 187 1.53 186 1.53 165 1.54 164 1.54
 185  0.835  0.500  0.669- 189 1.53 117 1.53 115 1.54 187 1.54
 186  0.917  0.417  0.917-  25 1.53 184 1.53  44 1.54 167 1.54
 187  0.752  0.416  0.752- 184 1.53 185 1.54 183 1.54 182 1.54
 188  0.751  0.584  0.918- 183 1.53  44 1.53  65 1.54 208 1.54
 189  0.918  0.584  0.751- 185 1.53 167 1.53 190 1.54 208 1.54
 190  0.001  0.667  0.667- 195 1.53 103 1.54 189 1.54 138 1.54
 191  0.001  0.834  0.833- 196 1.53 213 1.53 210 1.54 195 1.54
 192  0.167  0.667  0.833- 195 1.54 194 1.54 172 1.54 173 1.55
 193  0.166  0.834  0.666- 125 1.53 195 1.54 197 1.54 123 1.54
 194  0.250  0.750  0.916-  57 1.53 192 1.54 199 1.54  52 1.54
 195  0.084  0.750  0.750- 190 1.53 192 1.54 193 1.54 191 1.54
 196  0.084  0.917  0.916- 191 1.53  52 1.53 144 1.53   1 1.54
 197  0.250  0.917  0.750- 150 1.53 144 1.53 193 1.54 199 1.54
 198  0.333  0.670  0.667- 123 1.52 203 1.52 173 1.52 214 2.59
 199  0.334  0.834  0.834- 204 1.53 194 1.54 197 1.54 203 1.54
 200  0.500  0.667  0.833- 180 1.53 181 1.54 202 1.54 203 1.54
 201  0.501  0.837  0.669- 130 1.49 205 1.52 132 1.54 203 1.54
 202  0.583  0.750  0.917-  60 1.53 207 1.54 200 1.54  65 1.54
 203  0.417  0.751  0.749- 198 1.52 199 1.54 200 1.54 201 1.54
 204  0.417  0.917  0.917-   9 1.53 199 1.53  60 1.53 152 1.53
 205  0.583  0.920  0.752- 152 1.52 201 1.52 158 1.54 207 1.54
 206  0.670  0.669  0.670- 211 1.52 130 1.53 117 1.56 181 1.56 214 2.64
 207  0.667  0.834  0.834- 212 1.53 202 1.54 211 1.54 205 1.54
 208  0.835  0.667  0.835- 210 1.52 211 1.53 189 1.54 188 1.54
 209  0.834  0.834  0.667- 213 1.53 138 1.54 211 1.54 140 1.54
 210  0.917  0.750  0.917- 208 1.52  49 1.53 191 1.54  68 1.54
 211  0.752  0.751  0.752- 206 1.52 208 1.53 207 1.54 209 1.54
 212  0.750  0.917  0.917- 207 1.53  68 1.53  17 1.53 160 1.54
 213  0.917  0.917  0.750- 209 1.53 191 1.53 142 1.53 160 1.54
 214  0.500  0.607  0.500- 131 2.18 130 2.18 106 2.25 108 2.25 177 2.25 112 2.25 110 2.48 109 2.48
                           198 2.59 134 2.59 127 2.64 206 2.64 104 2.85  39 2.85 181 2.85 117 2.85
 

IMPORTANT INFORMATION: All symmetrisations will be switched off!
NOSYMM: (Re-)initialisation of all symmetry stuff for point group C_1.


----------------------------------------------------------------------------------------

                                     Primitive cell                                     

  volume of cell :    1202.8529

  direct lattice vectors                    reciprocal lattice vectors
    10.635000229  0.000000000  0.000000000     0.094029147  0.000000000  0.000000000
     0.000000000 10.635000229  0.000000000     0.000000000  0.094029147  0.000000000
     0.000000000  0.000000000 10.635000229     0.000000000  0.000000000  0.094029147

  length of vectors
    10.635000229 10.635000229 10.635000229     0.094029147  0.094029147  0.094029147

  position of ions in fractional coordinates (direct lattice)
     0.000000002  0.000248322  0.999999996
     0.999613170  0.166938720  0.166515777
     0.166222032  0.000196776  0.166222026
     0.166515775  0.166938719  0.999613165
     0.249236353  0.083737214  0.249236358
     0.083105749  0.083684408  0.083105745
     0.082629130  0.250276502  0.249599082
     0.249599075  0.250276502  0.082629132
     0.333199166  0.000449030  0.999651114
     0.332749535  0.166280361  0.165364909
     0.499723400  0.001546586  0.165310722
     0.499999995  0.166750464  0.000000006
     0.583286040  0.083834738  0.249649319
     0.416475964  0.083843794  0.082386380
     0.415943468  0.248545479  0.248190793
     0.583230761  0.249649819  0.082845473
     0.666800838  0.000449033  0.000348891
     0.666664882  0.166996865  0.166687431
     0.833168222  0.000347466  0.166831773
     0.833484229  0.166938713  0.000386840
     0.916383038  0.083664139  0.249943208
     0.750056788  0.083664138  0.083616965
     0.749805434  0.250338444  0.250194561
     0.916507702  0.250416770  0.083492308
     0.000000005  0.333608711  0.000000005
     0.999089557  0.500351463  0.166319276
     0.165694635  0.333367376  0.165694639
     0.166319276  0.500351460  0.999089553
     0.248458935  0.416367303  0.248458938
     0.082824397  0.417038450  0.082824396
     0.081893098  0.583712289  0.248887872
     0.248887872  0.583712291  0.081893092
     0.333132441  0.333570557  0.999387887
     0.331226743  0.500215333  0.164510248
     0.499812766  0.331950160  0.165052535
     0.499999988  0.500366258  0.000000023
     0.582503875  0.415489478  0.249130731
     0.416274388  0.416686720  0.082553791
     0.415151036  0.582590053  0.247451315
     0.583173986  0.583667022  0.083765699
     0.666867547  0.333570550  0.000612132
     0.665950893  0.500541787  0.167710263
     0.832996190  0.333785566  0.167003818
     0.833680729  0.500351463  0.000910463
     0.915816662  0.417264526  0.250225747
     0.749774247  0.417264525  0.084183354
     0.747549909  0.584751558  0.252450074
     0.916345251  0.583850510  0.083654760
     0.000000005  0.667017906  1.000000000
     0.999492296  0.833644658  0.166552710
     0.165123207  0.667188564  0.165123206
     0.166552714  0.833644660  0.999492285
     0.247586096  0.750695288  0.247586088
     0.082644850  0.750487782  0.082644844
     0.082650644  0.917144404  0.249635768
     0.249635768  0.917144403  0.082650634
     0.333200963  0.667035966  0.999372579
     0.332898926  0.834215031  0.165579430
     0.499888102  0.667092574  0.166549465
     0.499999997  0.833878275  0.000000010
     0.583262599  0.750681802  0.250560627
     0.416502012  0.750366733  0.082982886
     0.416570917  0.919545882  0.247680963
     0.583340290  0.917441004  0.083065913
     0.666799023  0.667035975  0.000627446
     0.666100274  0.834315001  0.166447096
     0.832666752  0.666740650  0.167333246
     0.833447292  0.833644669  0.000507716
     0.916066028  0.750456932  0.250245155
     0.749754830  0.750456945  0.083933992
     0.749793158  0.917128596  0.250206828
     0.916490736  0.917047255  0.083509264
     0.999651126  0.000449030  0.333199169
     0.000000007  0.166750459  0.500000000
     0.165310733  0.001546582  0.499723404
     0.165364908  0.166280359  0.332749543
     0.249649327  0.083834736  0.583286047
     0.082386387  0.083843788  0.416475976
     0.082845471  0.249649815  0.583230768
     0.248190790  0.248545475  0.415943474
     0.332563952  0.001343918  0.332563950
     0.332840065  0.166608629  0.499741106
     0.499999977  0.000896427  0.499999980
     0.499741104  0.166608634  0.332840057
     0.583634370  0.083840998  0.583634367
     0.416365613  0.083840992  0.416365611
     0.416525930  0.249702200  0.583474042
     0.583474039  0.249702200  0.416525933
     0.666681271  0.000733159  0.333318703
     0.667159926  0.166608632  0.500258872
     0.834689286  0.001546592  0.500276583
     0.833312567  0.166996871  0.333335105
     0.917613631  0.083843793  0.583524025
     0.750350667  0.083834739  0.416713933
     0.751809219  0.248545461  0.584056523
     0.917154543  0.249649816  0.416769232
     0.999387894  0.333570560  0.333132442
     0.000000022  0.500366259  0.499999996
     0.165052528  0.331950158  0.499812783
     0.164510248  0.500215337  0.331226744
     0.249130724  0.415489472  0.582503898
     0.082553794  0.416686723  0.416274394
     0.083765705  0.583667024  0.583173991
     0.247451316  0.582590054  0.415151044
     0.330257445  0.329247504  0.330257456
     0.323617278  0.490182626  0.491767955
     0.499999970  0.331526148  0.499999981
     0.491767928  0.490182636  0.323617286
     0.587952538  0.410570481  0.587952546
     0.412047390  0.410570556  0.412047423
     0.666402210  0.333368721  0.333597774
     0.676382739  0.490182553  0.508231997
     0.834947494  0.331950137  0.500187210
     0.832289751  0.500541776  0.334049079
     0.917446242  0.416686716  0.583725604
     0.750869291  0.415489438  0.417496059
     0.752548766  0.582590050  0.584848961
     0.916234340  0.583667017  0.416825996
     0.999372589  0.667035961  0.333200964
     0.000000024  0.833878271  0.499999996
     0.166549474  0.667092578  0.499888109
     0.165579441  0.834215032  0.332898925
     0.250560636  0.750681794  0.583262604
     0.082982900  0.750366727  0.416502008
     0.083065925  0.917440997  0.583340291
     0.247680973  0.919545881  0.416570920
     0.330198724  0.669107092  0.330198722
     0.330903754  0.837133691  0.498814252
     0.498814253  0.837133702  0.330903747
     0.593667448  0.764258340  0.593667457
     0.406332511  0.764258255  0.406332526
     0.416690761  0.918082729  0.583309194
     0.583309190  0.918082726  0.416690760
     0.666536045  0.670014424  0.333463883
     0.669096241  0.837133761  0.501185678
     0.833450594  0.667092581  0.500111868
     0.833552904  0.834315006  0.333899704
     0.917017154  0.750366731  0.583497979
     0.749439377  0.750681817  0.416737342
     0.752319049  0.919545909  0.583429061
     0.916934106  0.917441002  0.416659699
     0.000348898  0.000449029  0.666800829
     0.000386839  0.166938713  0.833484228
     0.166831774  0.000347462  0.833168218
     0.166687439  0.166996860  0.666664885
     0.249943210  0.083664137  0.916383031
     0.083616971  0.083664132  0.750056785
     0.083492307  0.250416770  0.916507700
     0.250194563  0.250338438  0.749805440
     0.333318704  0.000733155  0.666681273
     0.333335108  0.166996865  0.833312563
     0.500276588  0.001546594  0.834689274
     0.500258879  0.166608624  0.667159924
     0.583524032  0.083843797  0.917613628
     0.416713945  0.083834736  0.750350665
     0.416769227  0.249649817  0.917154544
     0.584056523  0.248545463  0.751809224
     0.667436049  0.001343939  0.667436040
     0.667250464  0.166280357  0.834635105
     0.833777985  0.000196781  0.833777979
     0.834635105  0.166280354  0.667250462
     0.916894260  0.083684400  0.916894255
     0.750763657  0.083737214  0.750763651
     0.750400923  0.250276489  0.917370884
     0.917370883  0.250276489  0.750400927
     0.000612127  0.333570555  0.666867556
     0.000910464  0.500351467  0.833680731
     0.167003816  0.333785566  0.832996190
     0.167710264  0.500541794  0.665950902
     0.250225745  0.417264529  0.915816661
     0.084183350  0.417264529  0.749774251
     0.083654762  0.583850513  0.916345246
     0.252450076  0.584751568  0.747549903
     0.333597772  0.333368716  0.666402220
     0.334049071  0.500541787  0.832289753
     0.500187203  0.331950139  0.834947498
     0.508231984  0.490182560  0.676382736
     0.583725597  0.416686709  0.917446251
     0.417496059  0.415489442  0.750869299
     0.416825985  0.583667025  0.916234335
     0.584848946  0.582590052  0.752548769
     0.669742556  0.329247457  0.669742559
     0.668773262  0.500215323  0.835489811
     0.834305375  0.333367362  0.834305377
     0.835489804  0.500215327  0.668773272
     0.917175618  0.417038441  0.917175618
     0.751541087  0.416367284  0.751541090
     0.751112135  0.583712296  0.918106937
     0.918106942  0.583712296  0.751112135
     0.000627454  0.667035970  0.666799029
     0.000507723  0.833644665  0.833447285
     0.167333250  0.666740656  0.832666743
     0.166447107  0.834315000  0.666100280
     0.250245162  0.750456937  0.916066011
     0.083934001  0.750456940  0.749754833
     0.083509267  0.917047254  0.916490729
     0.250206830  0.917128590  0.749793153
     0.333463891  0.670014421  0.666536036
     0.333899705  0.834315004  0.833552897
     0.500111855  0.667092586  0.833450590
     0.501185678  0.837133747  0.669096245
     0.583497975  0.750366737  0.917017148
     0.416737336  0.750681819  0.749439376
     0.416659699  0.917441005  0.916934089
     0.583429070  0.919545909  0.752319044
     0.669801320  0.669107119  0.669801327
     0.667101090  0.834215048  0.834420597
     0.834876819  0.667188581  0.834876816
     0.834420601  0.834215048  0.667101083
     0.917355164  0.750487791  0.917355157
     0.752413946  0.750695311  0.752413941
     0.750364241  0.917144413  0.917349380
     0.917349383  0.917144411  0.750364234
     0.499999754  0.607451982  0.499999813

  ion indices of the primitive-cell ions
   primitive index   ion index
                 1           1
                 2           2
                 3           3
                 4           4
                 5           5
                 6           6
                 7           7
                 8           8
                 9           9
                10          10
                11          11
                12          12
                13          13
                14          14
                15          15
                16          16
                17          17
                18          18
                19          19
                20          20
                21          21
                22          22
                23          23
                24          24
                25          25
                26          26
                27          27
                28          28
                29          29
                30          30
                31          31
                32          32
                33          33
                34          34
                35          35
                36          36
                37          37
                38          38
                39          39
                40          40
                41          41
                42          42
                43          43
                44          44
                45          45
                46          46
                47          47
                48          48
                49          49
                50          50
                51          51
                52          52
                53          53
                54          54
                55          55
                56          56
                57          57
                58          58
                59          59
                60          60
                61          61
                62          62
                63          63
                64          64
                65          65
                66          66
                67          67
                68          68
                69          69
                70          70
                71          71
                72          72
                73          73
                74          74
                75          75
                76          76
                77          77
                78          78
                79          79
                80          80
                81          81
                82          82
                83          83
                84          84
                85          85
                86          86
                87          87
                88          88
                89          89
                90          90
                91          91
                92          92
                93          93
                94          94
                95          95
                96          96
                97          97
                98          98
                99          99
               100         100
               101         101
               102         102
               103         103
               104         104
               105         105
               106         106
               107         107
               108         108
               109         109
               110         110
               111         111
               112         112
               113         113
               114         114
               115         115
               116         116
               117         117
               118         118
               119         119
               120         120
               121         121
               122         122
               123         123
               124         124
               125         125
               126         126
               127         127
               128         128
               129         129
               130         130
               131         131
               132         132
               133         133
               134         134
               135         135
               136         136
               137         137
               138         138
               139         139
               140         140
               141         141
               142         142
               143         143
               144         144
               145         145
               146         146
               147         147
               148         148
               149         149
               150         150
               151         151
               152         152
               153         153
               154         154
               155         155
               156         156
               157         157
               158         158
               159         159
               160         160
               161         161
               162         162
               163         163
               164         164
               165         165
               166         166
               167         167
               168         168
               169         169
               170         170
               171         171
               172         172
               173         173
               174         174
               175         175
               176         176
               177         177
               178         178
               179         179
               180         180
               181         181
               182         182
               183         183
               184         184
               185         185
               186         186
               187         187
               188         188
               189         189
               190         190
               191         191
               192         192
               193         193
               194         194
               195         195
               196         196
               197         197
               198         198
               199         199
               200         200
               201         201
               202         202
               203         203
               204         204
               205         205
               206         206
               207         207
               208         208
               209         209
               210         210
               211         211
               212         212
               213         213
               214         214

----------------------------------------------------------------------------------------

 
 
 KPOINTS: 1 x 1 x 1 k-mesh (automatic generation o

Automatic generation of k-mesh.
 Grid dimensions read from file:
 generate k-points for:    1    1    1

 Generating k-lattice:

  Cartesian coordinates                     Fractional coordinates (reciprocal lattice)
     0.094029147  0.000000000  0.000000000     1.000000000  0.000000000  0.000000000
     0.000000000  0.094029147  0.000000000     0.000000000  1.000000000  0.000000000
     0.000000000  0.000000000  0.094029147     0.000000000  0.000000000  1.000000000

  Length of vectors
     0.094029147  0.094029147  0.094029147

  Shift w.r.t. Gamma in fractional coordinates (k-lattice)
     0.000000000  0.000000000  0.000000000

 
 Subroutine IBZKPT returns following result:
 ===========================================
 
 Found      1 irreducible k-points:
 
 Following reciprocal coordinates:
            Coordinates               Weight
  0.000000  0.000000  0.000000      1.000000
 
 Following cartesian coordinates:
            Coordinates               Weight
  0.000000  0.000000  0.000000      1.000000
 


--------------------------------------------------------------------------------------------------------




 Dimension of arrays:
   k-points           NKPTS =      1   k-points in BZ     NKDIM =      1   number of bands    NBANDS=    648
   number of dos      NEDOS =    301   number of ions     NIONS =    214
   non local maximal  LDIM  =      8   non local SUM 2l+1 LMDIM =     32
   total plane-waves  NPLWV = 343000
   max r-space proj   IRMAX =      1   max aug-charges    IRDMAX=  17079
   dimension x,y,z NGX =    70 NGY =   70 NGZ =   70
   dimension x,y,z NGXF=   140 NGYF=  140 NGZF=  140
   support grid    NGXF=   140 NGYF=  140 NGZF=  140
   ions per type =             213   1
   NGX,Y,Z   is equivalent  to a cutoff of  10.94, 10.94, 10.94 a.u.
   NGXF,Y,Z  is equivalent  to a cutoff of  21.88, 21.88, 21.88 a.u.

 SYSTEM =  unknown system                          
 POSCAR =  prv2                                    

 Startparameter for this run:
   NWRITE =      2    write-flag & timer
   PREC   = accura    normal or accurate (medium, high low for compatibility)
   ISTART =      1    job   : 0-new  1-cont  2-samecut
   ICHARG =      0    charge: 1-file 2-atom 10-const
   ISPIN  =      2    spin polarized calculation?
   LNONCOLLINEAR =      F non collinear calculations
   LSORBIT =      F    spin-orbit coupling
   INIWAV =      1    electr: 0-lowe 1-rand  2-diag
   LASPH  =      F    aspherical Exc in radial PAW
 Electronic Relaxation 1
   ENCUT  =  370.0 eV  27.19 Ry    5.21 a.u.  16.68 16.68 16.68*2*pi/ulx,y,z
   ENINI  =  370.0     initial cutoff
   ENAUG  =  740.0 eV  augmentation charge cutoff
   NELM   =    120;   NELMIN=  2; NELMDL=  0     # of ELM steps 
   EDIFF  = 0.1E-05   stopping-criterion for ELM
   LREAL  =      F    real-space projection
   NLSPLINE    = F    spline interpolate recip. space projectors
   LCOMPAT=      F    compatible to vasp.4.4
   GGA_COMPAT  = T    GGA compatible to vasp.4.4-vasp.4.6
   LMAXPAW     = -100 max onsite density
   LMAXMIX     =    2 max onsite mixed and CHGCAR
   VOSKOWN=      0    Vosko Wilk Nusair interpolation
   ROPT   =    0.00000   0.00000
 Ionic relaxation
   EDIFFG = -.1E-01   stopping-criterion for IOM
   NSW    =      0    number of steps for IOM
   NBLOCK =      1;   KBLOCK =      1    inner block; outer block 
   IBRION =     -1    ionic relax: 0-MD 1-quasi-New 2-CG
   NFREE  =      0    steps in history (QN), initial steepest desc. (CG)
   ISIF   =      1    stress and relaxation
   IWAVPR =     10    prediction:  0-non 1-charg 2-wave 3-comb
   ISYM   =      0    0-nonsym 1-usesym 2-fastsym
   LCORR  =      T    Harris-Foulkes like correction to forces

   POTIM  = 0.2000    time-step for ionic-motion
   TEIN   =    0.0    initial temperature
   TEBEG  =    0.0;   TEEND  =   0.0 temperature during run
   SMASS  =  -3.00    Nose mass-parameter (am)
   estimated Nose-frequenzy (Omega)   =  0.10E-29 period in steps = 0.31E+47 mass=  -0.258E-26a.u.
   SCALEE = 1.0000    scale energy and forces
   NPACO  =    256;   APACO  = 16.0  distance and # of slots for P.C.
   PSTRESS=    0.0 pullay stress

  Mass of Ions in am
   POMASS =  12.01229.00
  Ionic Valenz
   ZVAL   =   4.00 13.00
  Atomic Wigner-Seitz radii
   RWIGS  =  -1.00 -1.00
  virtual crystal weights 
   VCA    =   1.00  1.00
   NELECT =     866.0000    total number of electrons
   NUPDOWN=      -1.0000    fix difference up-down

 DOS related values:
   EMIN   =  10.00;   EMAX   =-10.00  energy-range for DOS
   EFERMI =   0.00
   ISMEAR =    -2;   SIGMA  =   0.01  broadening in eV -4-tet -1-fermi 0-gaus

 Electronic relaxation 2 (details)
   IALGO  =     38    algorithm
   LDIAG  =      T    sub-space diagonalisation (order eigenvalues)
   LSUBROT=      F    optimize rotation matrix (better conditioning)
   TURBO    =      0    0=normal 1=particle mesh
   IRESTART =      0    0=no restart 2=restart with 2 vectors
   NREBOOT  =      0    no. of reboots
   NMIN     =      0    reboot dimension
   EREF     =   0.00    reference energy to select bands
   IMIX   =      4    mixing-type and parameters
     AMIX     =   0.40;   BMIX     =  1.00
     AMIX_MAG =   1.60;   BMIX_MAG =  1.00
     AMIN     =   0.10
     WC   =   100.;   INIMIX=   1;  MIXPRE=   1;  MAXMIX= -45

 Intra band minimization:
   WEIMIN = 0.0000     energy-eigenvalue tresh-hold
   EBREAK =  0.39E-09  absolut break condition
   DEPER  =   0.30     relativ break condition  

   TIME   =   0.40     timestep for ELM

  volume/ion in A,a.u.               =       5.62        37.93
  Fermi-wavevector in a.u.,A,eV,Ry     =   1.467270  2.772738 29.291717  2.152880
  Thomas-Fermi vector in A             =   2.582908
 
 Write flags
   LWAVE        =      T    write WAVECAR
   LDOWNSAMPLE  =      F    k-point downsampling of WAVECAR
   LCHARG       =      T    write CHGCAR
   LVTOT        =      F    write LOCPOT, total local potential
   LVHAR        =      F    write LOCPOT, Hartree potential only
   LELF         =      F    write electronic localiz. function (ELF)
   LORBIT       =      0    0 simple, 1 ext, 2 COOP (PROOUT), +10 PAW based schemes


 Dipole corrections
   LMONO  =      F    monopole corrections only (constant potential shift)
   LDIPOL =      T    correct potential (dipole corrections)
   IDIPOL =      3    1-x, 2-y, 3-z, 4-all directions 
   EPSILON=  1.0000000 bulk dielectric constant

   EFIELD =  1.0000000 eV/A    external electric force field

 Exchange correlation treatment:
   GGA     =    PE    GGA type
   LEXCH   =     8    internal setting for exchange type
   VOSKOWN=      0    Vosko Wilk Nusair interpolation
   LHFCALC =     F    Hartree Fock is set to
   LHFONE  =     F    Hartree Fock one center treatment
   AEXX    =    0.0000 exact exchange contribution

 Linear response parameters
   LEPSILON=     F    determine dielectric tensor
   LRPA    =     F    only Hartree local field effects (RPA)
   LNABLA  =     F    use nabla operator in PAW spheres
   LVEL    =     F    velocity operator in full k-point grid
   LINTERFAST=   F  fast interpolation
   KINTER  =     0    interpolate to denser k-point grid
   CSHIFT  =0.1000    complex shift for real part using Kramers Kronig
   OMEGAMAX=  -1.0    maximum frequency
   DEG_THRESHOLD= 0.2000000E-02 threshold for treating states as degnerate
   RTIME   =   -0.100 relaxation time in fs
  (WPLASMAI=    0.000 imaginary part of plasma frequency in eV, 0.658/RTIME)
   DFIELD  = 0.0000000 0.0000000 0.0000000 field for delta impulse in time
 
 Orbital magnetization related:
   ORBITALMAG=     F  switch on orbital magnetization
   LCHIMAG   =     F  perturbation theory with respect to B field
   DQ        =  0.001000  dq finite difference perturbation B field
   LLRAUG    =     F  two centre corrections for induced B field



--------------------------------------------------------------------------------------------------------


 Static calculation
 charge density and potential will be updated during run
 spin polarized calculation
 Variant of blocked Davidson
 Davidson routine will perform the subspace rotation
 perform sub-space diagonalisation
    after iterative eigenvector-optimisation
 modified Broyden-mixing scheme, WC =      100.0
 initial mixing is a Kerker type mixing with AMIX =  0.4000 and BMIX =      1.0000
 Hartree-type preconditioning will be used
 using additional bands          215
 reciprocal scheme for non local part
 use partial core corrections
 calculate Harris-corrections to forces 
   (improved forces if not selfconsistent)
 use gradient corrections 
 use of overlap-Matrix (Vanderbilt PP)
 partial occupancies read from INCAR or WAVECAR (fixed during run)


--------------------------------------------------------------------------------------------------------


  energy-cutoff  :      370.00
  volume of cell :     1202.85
      direct lattice vectors                 reciprocal lattice vectors
    10.635000229  0.000000000  0.000000000     0.094029147  0.000000000  0.000000000
     0.000000000 10.635000229  0.000000000     0.000000000  0.094029147  0.000000000
     0.000000000  0.000000000 10.635000229     0.000000000  0.000000000  0.094029147

  length of vectors
    10.635000229 10.635000229 10.635000229     0.094029147  0.094029147  0.094029147


 
 old parameters found on file WAVECAR:
  energy-cutoff  :      370.00
  volume of cell :     1202.85
      direct lattice vectors                 reciprocal lattice vectors
    10.635000229  0.000000000  0.000000000     0.094029147  0.000000000  0.000000000
     0.000000000 10.635000229  0.000000000     0.000000000  0.094029147  0.000000000
     0.000000000  0.000000000 10.635000229     0.000000000  0.000000000  0.094029147

  length of vectors

 
 k-points in units of 2pi/SCALE and weight: 1 x 1 x 1 k-mesh (automatic generation o
   0.00000000  0.00000000  0.00000000       1.000
 
 k-points in reciprocal lattice and weights: 1 x 1 x 1 k-mesh (automatic generation o
   0.00000000  0.00000000  0.00000000       1.000
 
 position of ions in fractional coordinates (direct lattice) 
   0.00000000  0.00024832  1.00000000
   0.99961317  0.16693872  0.16651578
   0.16622203  0.00019678  0.16622203
   0.16651578  0.16693872  0.99961316
   0.24923635  0.08373721  0.24923636
   0.08310575  0.08368441  0.08310574
   0.08262913  0.25027650  0.24959908
   0.24959907  0.25027650  0.08262913
   0.33319917  0.00044903  0.99965111
   0.33274953  0.16628036  0.16536491
   0.49972340  0.00154659  0.16531072
   0.49999999  0.16675046  0.00000001
   0.58328604  0.08383474  0.24964932
   0.41647596  0.08384379  0.08238638
   0.41594347  0.24854548  0.24819079
   0.58323076  0.24964982  0.08284547
   0.66680084  0.00044903  0.00034889
   0.66666488  0.16699687  0.16668743
   0.83316822  0.00034747  0.16683177
   0.83348423  0.16693871  0.00038684
   0.91638304  0.08366414  0.24994321
   0.75005679  0.08366414  0.08361696
   0.74980543  0.25033844  0.25019456
   0.91650770  0.25041677  0.08349231
   0.00000001  0.33360871  0.00000001
   0.99908956  0.50035146  0.16631928
   0.16569463  0.33336738  0.16569464
   0.16631928  0.50035146  0.99908955
   0.24845893  0.41636730  0.24845894
   0.08282440  0.41703845  0.08282440
   0.08189310  0.58371229  0.24888787
   0.24888787  0.58371229  0.08189309
   0.33313244  0.33357056  0.99938789
   0.33122674  0.50021533  0.16451025
   0.49981277  0.33195016  0.16505254
   0.49999999  0.50036626  0.00000002
   0.58250387  0.41548948  0.24913073
   0.41627439  0.41668672  0.08255379
   0.41515104  0.58259005  0.24745132
   0.58317399  0.58366702  0.08376570
   0.66686755  0.33357055  0.00061213
   0.66595089  0.50054179  0.16771026
   0.83299619  0.33378557  0.16700382
   0.83368073  0.50035146  0.00091046
   0.91581666  0.41726453  0.25022575
   0.74977425  0.41726452  0.08418335
   0.74754991  0.58475156  0.25245007
   0.91634525  0.58385051  0.08365476
   0.00000001  0.66701791  1.00000000
   0.99949230  0.83364466  0.16655271
   0.16512321  0.66718856  0.16512321
   0.16655271  0.83364466  0.99949228
   0.24758610  0.75069529  0.24758609
   0.08264485  0.75048778  0.08264484
   0.08265064  0.91714440  0.24963577
   0.24963577  0.91714440  0.08265063
   0.33320096  0.66703597  0.99937258
   0.33289893  0.83421503  0.16557943
   0.49988810  0.66709257  0.16654946
   0.50000000  0.83387828  0.00000001
   0.58326260  0.75068180  0.25056063
   0.41650201  0.75036673  0.08298289
   0.41657092  0.91954588  0.24768096
   0.58334029  0.91744100  0.08306591
   0.66679902  0.66703597  0.00062745
   0.66610027  0.83431500  0.16644710
   0.83266675  0.66674065  0.16733325
   0.83344729  0.83364467  0.00050772
   0.91606603  0.75045693  0.25024515
   0.74975483  0.75045695  0.08393399
   0.74979316  0.91712860  0.25020683
   0.91649074  0.91704725  0.08350926
   0.99965113  0.00044903  0.33319917
   0.00000001  0.16675046  0.50000000
   0.16531073  0.00154658  0.49972340
   0.16536491  0.16628036  0.33274954
   0.24964933  0.08383474  0.58328605
   0.08238639  0.08384379  0.41647598
   0.08284547  0.24964981  0.58323077
   0.24819079  0.24854548  0.41594347
   0.33256395  0.00134392  0.33256395
   0.33284006  0.16660863  0.49974111
   0.49999998  0.00089643  0.49999998
   0.49974110  0.16660863  0.33284006
   0.58363437  0.08384100  0.58363437
   0.41636561  0.08384099  0.41636561
   0.41652593  0.24970220  0.58347404
   0.58347404  0.24970220  0.41652593
   0.66668127  0.00073316  0.33331870
   0.66715993  0.16660863  0.50025887
   0.83468929  0.00154659  0.50027658
   0.83331257  0.16699687  0.33333511
   0.91761363  0.08384379  0.58352403
   0.75035067  0.08383474  0.41671393
   0.75180922  0.24854546  0.58405652
   0.91715454  0.24964982  0.41676923
   0.99938789  0.33357056  0.33313244
   0.00000002  0.50036626  0.50000000
   0.16505253  0.33195016  0.49981278
   0.16451025  0.50021534  0.33122674
   0.24913072  0.41548947  0.58250390
   0.08255379  0.41668672  0.41627439
   0.08376571  0.58366702  0.58317399
   0.24745132  0.58259005  0.41515104
   0.33025745  0.32924750  0.33025746
   0.32361728  0.49018263  0.49176796
   0.49999997  0.33152615  0.49999998
   0.49176793  0.49018264  0.32361729
   0.58795254  0.41057048  0.58795255
   0.41204739  0.41057056  0.41204742
   0.66640221  0.33336872  0.33359777
   0.67638274  0.49018255  0.50823200
   0.83494749  0.33195014  0.50018721
   0.83228975  0.50054178  0.33404908
   0.91744624  0.41668672  0.58372560
   0.75086929  0.41548944  0.41749606
   0.75254877  0.58259005  0.58484896
   0.91623434  0.58366702  0.41682600
   0.99937259  0.66703596  0.33320096
   0.00000002  0.83387827  0.50000000
   0.16654947  0.66709258  0.49988811
   0.16557944  0.83421503  0.33289892
   0.25056064  0.75068179  0.58326260
   0.08298290  0.75036673  0.41650201
   0.08306592  0.91744100  0.58334029
   0.24768097  0.91954588  0.41657092
   0.33019872  0.66910709  0.33019872
   0.33090375  0.83713369  0.49881425
   0.49881425  0.83713370  0.33090375
   0.59366745  0.76425834  0.59366746
   0.40633251  0.76425826  0.40633253
   0.41669076  0.91808273  0.58330919
   0.58330919  0.91808273  0.41669076
   0.66653604  0.67001442  0.33346388
   0.66909624  0.83713376  0.50118568
   0.83345059  0.66709258  0.50011187
   0.83355290  0.83431501  0.33389970
   0.91701715  0.75036673  0.58349798
   0.74943938  0.75068182  0.41673734
   0.75231905  0.91954591  0.58342906
   0.91693411  0.91744100  0.41665970
   0.00034890  0.00044903  0.66680083
   0.00038684  0.16693871  0.83348423
   0.16683177  0.00034746  0.83316822
   0.16668744  0.16699686  0.66666488
   0.24994321  0.08366414  0.91638303
   0.08361697  0.08366413  0.75005678
   0.08349231  0.25041677  0.91650770
   0.25019456  0.25033844  0.74980544
   0.33331870  0.00073316  0.66668127
   0.33333511  0.16699687  0.83331256
   0.50027659  0.00154659  0.83468927
   0.50025888  0.16660862  0.66715992
   0.58352403  0.08384380  0.91761363
   0.41671394  0.08383474  0.75035067
   0.41676923  0.24964982  0.91715454
   0.58405652  0.24854546  0.75180922
   0.66743605  0.00134394  0.66743604
   0.66725046  0.16628036  0.83463511
   0.83377799  0.00019678  0.83377798
   0.83463510  0.16628035  0.66725046
   0.91689426  0.08368440  0.91689426
   0.75076366  0.08373721  0.75076365
   0.75040092  0.25027649  0.91737088
   0.91737088  0.25027649  0.75040093
   0.00061213  0.33357055  0.66686756
   0.00091046  0.50035147  0.83368073
   0.16700382  0.33378557  0.83299619
   0.16771026  0.50054179  0.66595090
   0.25022575  0.41726453  0.91581666
   0.08418335  0.41726453  0.74977425
   0.08365476  0.58385051  0.91634525
   0.25245008  0.58475157  0.74754990
   0.33359777  0.33336872  0.66640222
   0.33404907  0.50054179  0.83228975
   0.50018720  0.33195014  0.83494750
   0.50823198  0.49018256  0.67638274
   0.58372560  0.41668671  0.91744625
   0.41749606  0.41548944  0.75086930
   0.41682599  0.58366703  0.91623434
   0.58484895  0.58259005  0.75254877
   0.66974256  0.32924746  0.66974256
   0.66877326  0.50021532  0.83548981
   0.83430538  0.33336736  0.83430538
   0.83548980  0.50021533  0.66877327
   0.91717562  0.41703844  0.91717562
   0.75154109  0.41636728  0.75154109
   0.75111214  0.58371230  0.91810694
   0.91810694  0.58371230  0.75111213
   0.00062745  0.66703597  0.66679903
   0.00050772  0.83364467  0.83344729
   0.16733325  0.66674066  0.83266674
   0.16644711  0.83431500  0.66610028
   0.25024516  0.75045694  0.91606601
   0.08393400  0.75045694  0.74975483
   0.08350927  0.91704725  0.91649073
   0.25020683  0.91712859  0.74979315
   0.33346389  0.67001442  0.66653604
   0.33389971  0.83431500  0.83355290
   0.50011185  0.66709259  0.83345059
   0.50118568  0.83713375  0.66909625
   0.58349797  0.75036674  0.91701715
   0.41673734  0.75068182  0.74943938
   0.41665970  0.91744100  0.91693409
   0.58342907  0.91954591  0.75231904
   0.66980132  0.66910712  0.66980133
   0.66710109  0.83421505  0.83442060
   0.83487682  0.66718858  0.83487682
   0.83442060  0.83421505  0.66710108
   0.91735516  0.75048779  0.91735516
   0.75241395  0.75069531  0.75241394
   0.75036424  0.91714441  0.91734938
   0.91734938  0.91714441  0.75036423
   0.49999975  0.60745198  0.49999981
 
 position of ions in cartesian coordinates  (Angst):
   0.00000003  0.00264091 10.63500019
  10.63088629  1.77539332  1.77089533
   1.76777134  0.00209271  1.76777129
   1.77089531  1.77539331 10.63088624
   2.65062867  0.89054529  2.65062873
   0.88382966  0.88998369  0.88382961
   0.87876082  2.66169066  2.65448630
   2.65448622  2.66169066  0.87876083
   3.54357320  0.00477543 10.63128982
   3.53879138  1.76839167  1.75865585
   5.31455847  0.01644795  1.75807957
   5.31750006  1.77339122  0.00000006
   6.20324717  0.89158246  2.65502056
   4.42922197  0.89167877  0.87617917
   4.42355887  2.64328123  2.63950914
   6.20265928  2.65502588  0.88106162
   7.09142706  0.00477547  0.00371045
   7.08998118  1.77601170  1.77272087
   8.86074423  0.00369530  1.77425595
   8.86410497  1.77539326  0.00411404
   9.74573382  0.88976814  2.65814608
   7.97685412  0.88976812  0.88926644
   7.97418096  2.66234941  2.66081922
   9.74705962  2.66318240  0.88794071
   0.00000006  3.54792872  0.00000005
  10.62531767  5.32123792  1.76880553
   1.76216248  3.54536212  1.76216252
   1.76880554  5.32123790 10.62531763
   2.64236083  4.42806636  2.64236086
   0.88083748  4.43520401  0.88083748
   0.87093312  6.20778033  2.64692257
   2.64692258  6.20778035  0.87093306
   3.54286359  3.54752295 10.62849041
   3.52259648  5.31979018  1.74956653
   5.31550888  3.53029002  1.75533375
   5.31749999  5.32139527  0.00000025
   6.19492884  4.41873069  2.64950538
   4.42707821  4.43146336  0.87795959
   4.41513137  6.19584535  2.63164479
   6.20205547  6.20729892  0.89084822
   7.09213652  3.54752287  0.00651002
   7.08238790  5.32326202  1.78359868
   8.85891467  3.54980957  1.77608564
   8.86619474  5.32123792  0.00968278
   9.73971041  4.43760833  2.66115087
   7.97384929  4.43760832  0.89528999
   7.95019345  6.21883295  2.68480660
   9.74533195  6.20925031  0.88966839
   0.00000006  7.09373559 10.63500023
  10.62960080  8.86581113  1.77128811
   1.75608535  7.09555053  1.75608534
   1.77128815  8.86581115 10.62960068
   2.63307818  7.98364455  2.63307810
   0.87892800  7.98143774  0.87892794
   0.87898962  9.75383095  2.65487645
   2.65487645  9.75383094  0.87898951
   3.54359232  7.09392765 10.62832761
   3.54038015  8.87187705  1.76093728
   5.31631008  7.09452968  1.77125359
   5.31750009  8.86829565  0.00000011
   6.20299787  7.98350113  2.66471232
   4.42949900  7.98015038  0.88252301
   4.43023180  9.77937066  2.63408710
   6.20382412  9.75698529  0.88340601
   7.09140776  7.09392774  0.00667289
   7.08397656  8.87294023  1.77016491
   8.85541110  7.09078696  1.77958911
   8.86371215  8.86581125  0.00539956
   9.74236242  7.98110964  2.66135728
   7.97364279  7.98110978  0.89263803
   7.97405041  9.75366283  2.66094967
   9.74687918  9.75279776  0.88812104
  10.63128995  0.00477543  3.54357324
   0.00000008  1.77339117  5.31750011
   1.75807968  0.01644790  5.31455851
   1.75865583  1.76839166  3.53879147
   2.65502065  0.89158244  6.20324724
   0.87617925  0.89167871  4.42922210
   0.88106160  2.65502584  6.20265936
   2.63950911  2.64328119  4.42355894
   3.53681770  0.01429257  3.53681768
   3.53975416  1.77188281  5.31474678
   5.31749987  0.00953351  5.31749990
   5.31474676  1.77188286  3.53975408
   6.20695166  0.89164903  6.20695163
   4.42804839  0.89164897  4.42804837
   4.42975336  2.65558296  6.20524657
   6.20524654  2.65558295  4.42975339
   7.09015547  0.00779715  3.54484449
   7.09524597  1.77188284  5.32025322
   8.87692075  0.01644800  5.32044157
   8.86227934  1.77601176  3.54501892
   9.75882118  0.89167876  6.20577814
   7.97997952  0.89158247  4.43175278
   7.99549121  2.64328104  6.21144125
   9.75393877  2.65502585  4.43234087
  10.62849048  3.54752298  3.54286360
   0.00000023  5.32139528  5.31750007
   1.75533367  3.53029000  5.31550907
   1.74956653  5.31979023  3.52259650
   2.64950530  4.41873063  6.19492909
   0.87795962  4.43146340  4.42707827
   0.89084830  6.20729894  6.20205552
   2.63164480  6.19584536  4.41513145
   3.51228801  3.50154729  3.51228812
   3.44166983  5.21309234  5.22995231
   5.31749979  3.52578066  5.31749992
   5.22995203  5.21309245  3.44166991
   6.25287538  4.36641716  6.25287546
   4.38212409  4.36641796  4.38212443
   7.08718766  3.54537642  3.54781241
   7.19333058  5.21309156  5.40504741
   8.87966679  3.53028978  5.31949109
   8.85140169  5.32326190  3.55261203
   9.75704100  4.43146332  6.20792193
   7.98549509  4.41873027  4.44007068
   8.00335629  6.19584532  6.21986884
   9.74415242  6.20729886  4.43294457
  10.62832772  7.09392759  3.54359233
   0.00000026  8.86829560  5.31750008
   1.77125369  7.09452972  5.31631015
   1.76093739  8.87187705  3.54038014
   2.66471242  7.98350105  6.20299793
   0.88252316  7.98015032  4.42949895
   0.88340613  9.75698521  6.20382413
   2.63408720  9.77937066  4.43023183
   3.51166350  7.11595408  3.51166349
   3.51916150  8.90291700  5.30488969
   5.30488969  8.90291711  3.51916143
   6.31365344  8.12788763  6.31365355
   4.32134635  8.12788672  4.32134651
   4.43150634  9.76381003  6.20349342
   6.20349337  9.76381000  4.43150633
   7.08861099  7.12560355  3.54638847
   7.11583867  8.90291774  5.33010980
   8.86374726  7.09452975  5.31868983
   8.86483533  8.87294027  3.55102342
   9.75247765  7.98015036  6.20550114
   7.97028795  7.98350130  4.43200173
   8.00091325  9.77937095  6.20476820
   9.75159443  9.75698527  4.43117600
   0.00371053  0.00477543  7.09142697
   0.00411403  1.77539325  8.86410496
   1.77425596  0.00369526  8.86074419
   1.77272095  1.77601164  7.08998120
   2.65814610  0.88976812  9.74573375
   0.88926651  0.88976807  7.97685408
   0.88794070  2.66318240  9.74705960
   2.66081923  2.66234935  7.97418103
   3.54484450  0.00779711  7.09015549
   3.54501895  1.77601170  8.86227930
   5.32044163  0.01644803  8.87692062
   5.32025329  1.77188276  7.09524595
   6.20577821  0.89167880  9.75882115
   4.43175290  0.89158243  7.97997950
   4.43234082  2.65502586  9.75393878
   6.21144126  2.64328106  7.99549127
   7.09818253  0.01429279  7.09818244
   7.09620884  1.76839163  8.87634453
   8.86722907  0.00209277  8.86722900
   8.87634453  1.76839160  7.09620882
   9.75117066  0.88998361  9.75117062
   7.98437166  0.89054530  7.98437160
   7.98051399  2.66169052  9.75623956
   9.75623955  2.66169052  7.98051403
   0.00650997  3.54752293  7.09213661
   0.00968278  5.32123797  8.86619476
   1.77608562  3.54980957  8.85891467
   1.78359870  5.32326209  7.08238799
   2.66115086  4.43760836  9.73971040
   0.89528995  4.43760836  7.97384933
   0.88966842  6.20925033  9.74533190
   2.68480662  6.21883306  7.95019339
   3.54781239  3.54537637  7.08718776
   3.55261195  5.32326202  8.85140171
   5.31949102  3.53028980  8.87966683
   5.40504727  5.21309163  7.19333055
   6.20792185  4.43146324  9.75704109
   4.44007068  4.41873032  7.98549517
   4.43294445  6.20729895  9.74415236
   6.21986868  6.19584534  8.00335633
   7.12271224  3.50154678  7.12271227
   7.11240380  5.31979008  8.88543433
   8.87283786  3.54536197  8.87283787
   8.88543426  5.31979012  7.11240390
   9.75416291  4.43520392  9.75416291
   7.99263963  4.42806616  7.99263967
   7.98807773  6.20778040  9.76406749
   9.76406753  6.20778040  7.98807772
   0.00667297  7.09392769  7.09140782
   0.00539963  8.86581121  8.86371207
   1.77958915  7.09078703  8.85541100
   1.77016502  8.87294021  7.08397663
   2.66135735  7.98110970  9.74236223
   0.89263812  7.98110973  7.97364282
   0.88812108  9.75279775  9.74687911
   2.66094970  9.75366276  7.97405035
   3.54638855  7.12560352  7.08861089
   3.55102344  8.87294026  8.86483525
   5.31868969  7.09452980  8.86374722
   5.33010980  8.90291759  7.11583872
   6.20550109  7.98015042  9.75247757
   4.43200166  7.98350132  7.97028794
   4.43117599  9.75698530  9.75159425
   6.20476830  9.77937096  8.00091321
   7.12333719  7.11595437  7.12333727
   7.09462025  8.87187722  8.87406324
   8.87891516  7.09555071  8.87891512
   8.87406328  8.87187723  7.09462017
   9.75607238  7.98143783  9.75607231
   8.00192249  7.98364481  8.00192243
   7.98012387  9.75383104  9.75601087
   9.75601090  9.75383102  7.98012380
   5.31749750  6.46025197  5.31749813
 


--------------------------------------------------------------------------------------------------------


 use parallel FFT for orbitals z direction half grid
 k-point   1 :   0.0000 0.0000 0.0000  plane waves:    9775

 maximum and minimum number of plane-waves per node :      1225     1219

 maximum number of plane-waves:      9775
 maximum index in each direction: 
   IXMAX=   16   IYMAX=   16   IZMAX=   16
   IXMIN=  -16   IYMIN=  -16   IZMIN=    0


 parallel 3D FFT for wavefunctions:
    minimum data exchange during FFTs selected (reduces bandwidth)
 parallel 3D FFT for charge:
    minimum data exchange during FFTs selected (reduces bandwidth)


 total amount of memory used by VASP MPI-rank0    74804. kBytes
=======================================================================

   base      :      30000. kBytes
   nonl-proj :       4817. kBytes
   fftplans  :       6905. kBytes
   grid      :      17821. kBytes
   one-center:       1327. kBytes
   wavefun   :      13934. kBytes
 
     INWAV:  cpu time    0.4447: real time    0.5714
 Broyden mixing: mesh for mixing (old mesh)
   NGX = 33   NGY = 33   NGZ = 33
  (NGX  =140   NGY  =140   NGZ  =140)
  gives a total of  35937 points

 charge density for first step will be calculated from the start-wavefunctions


--------------------------------------------------------------------------------------------------------


 Maximum index for augmentation-charges         1142 (set IRDMAX)


--------------------------------------------------------------------------------------------------------


 initial charge from wavefunction
 First call to EWALD:  gamma=   0.167
 Maximum number of real-space cells 3x 3x 3
 Maximum number of reciprocal cells 3x 3x 3

    FEWALD:  cpu time    0.0143: real time    0.0147


--------------------------------------- Iteration      1(   1)  ---------------------------------------


    POTLOK:  cpu time    0.2578: real time    0.2910
    SETDIJ:  cpu time    0.0774: real time    0.0778
     EDDAV:  cpu time   17.8662: real time   17.9932
       DOS:  cpu time    0.0006: real time    0.0006
    CHARGE:  cpu time    0.2523: real time    0.2539
    MIXING:  cpu time    0.0078: real time    0.0078
    --------------------------------------------
      LOOP:  cpu time   18.4621: real time   18.6244

 eigenvalue-minimisations  :  4408
 total energy-change (2. order) :-0.1909648E+04  (-0.4365268E+00)
 number of electron     866.0000007 magnetization       1.9999999
 augmentation part       18.9715102 magnetization       0.4375963

 DIPCOR: dipole corrections for dipol
 direction  3 min pos     1,
 dipolmoment           0.000000      0.000000      5.415349 electrons x Angstroem
 Tr[quadrupol]    -17443.335936

 energy correction for charged system         1.920850 eV
 dipol+quadrupol energy correction           -2.436002 eV
 added-field ion interaction        204.350754 eV  (added to PSCEN)


 Broyden mixing:
  rms(total) = 0.14892E+01    rms(broyden)= 0.14884E+01
  rms(prec ) = 0.18941E+01
  weight for this iteration     100.00

 Free energy of the ion-electron system (eV)
  ---------------------------------------------------
  alpha Z        PSCENC =      3481.28860911
  Ewald energy   TEWEN  =    -38582.10891917
  -Hartree energ DENC   =     -2880.02315537
  -exchange      EXHF   =         0.00000000
  -V(xc)+E(xc)   XCENC  =      3051.91038538
  PAW double counting   =     90754.50490434   -90879.19939795
  entropy T*S    EENTRO =         0.00000000
  eigenvalues    EBANDS =       631.28100934
  atomic energy  EATOM  =     32512.69873708
  Solvation  Ediel_sol  =         0.00000000
  ---------------------------------------------------
  free energy    TOTEN  =     -1909.64782724 eV

  energy without entropy =    -1909.64782724  energy(sigma->0) =    -1909.64782724


--------------------------------------------------------------------------------------------------------




--------------------------------------- Iteration      1(   2)  ---------------------------------------


    POTLOK:  cpu time    0.2570: real time    0.2590
    SETDIJ:  cpu time    0.0799: real time    0.0800
     EDDAV:  cpu time   17.7850: real time   17.8687
       DOS:  cpu time    0.0004: real time    0.0004
    CHARGE:  cpu time    0.2509: real time    0.2522
    MIXING:  cpu time    0.0071: real time    0.0071
    --------------------------------------------
      LOOP:  cpu time   18.3803: real time   18.4674

 eigenvalue-minimisations  :  4384
 total energy-change (2. order) :-0.1291843E+01  (-0.1617838E+01)
 number of electron     866.0000005 magnetization       1.9999999
 augmentation part       18.0642478 magnetization       0.1210341

 DIPCOR: dipole corrections for dipol
 direction  3 min pos     1,
 dipolmoment           0.000000      0.000000      5.057751 electrons x Angstroem
 Tr[quadrupol]    -17444.292309

 energy correction for charged system         1.920850 eV
 dipol+quadrupol energy correction           -2.124906 eV
 added-field ion interaction        201.823586 eV  (added to PSCEN)


 Broyden mixing:
  rms(total) = 0.19309E+01    rms(broyden)= 0.19305E+01
  rms(prec ) = 0.20363E+01
  weight for this iteration     100.00

 eigenvalues of (default mixing * dielectric matrix)
  average eigenvalue GAMMA=   0.3839
  0.3839

 Free energy of the ion-electron system (eV)
  ---------------------------------------------------
  alpha Z        PSCENC =      3479.07253768
  Ewald energy   TEWEN  =    -38582.10891917
  -Hartree energ DENC   =     -2889.29572183
  -exchange      EXHF   =         0.00000000
  -V(xc)+E(xc)   XCENC  =      3051.99570594
  PAW double counting   =     90826.94662132   -90950.46068086
  entropy T*S    EENTRO =         0.00000000
  eigenvalues    EBANDS =       640.21204950
  atomic energy  EATOM  =     32512.69873708
  Solvation  Ediel_sol  =         0.00000000
  ---------------------------------------------------
  free energy    TOTEN  =     -1910.93967034 eV

  energy without entropy =    -1910.93967034  energy(sigma->0) =    -1910.93967034


--------------------------------------------------------------------------------------------------------




--------------------------------------- Iteration      1(   3)  ---------------------------------------


    POTLOK:  cpu time    0.2475: real time    0.2503
    SETDIJ:  cpu time    0.0729: real time    0.0731
     EDDAV:  cpu time   16.0585: real time   16.1432
       DOS:  cpu time    0.0004: real time    0.0004
    CHARGE:  cpu time    0.2472: real time    0.2476
    MIXING:  cpu time    0.0072: real time    0.0072
    --------------------------------------------
      LOOP:  cpu time   16.6337: real time   16.7218

 eigenvalue-minimisations  :  3888
 total energy-change (2. order) : 0.4023553E+01  (-0.1546884E+00)
 number of electron     866.0000005 magnetization       1.9999999
 augmentation part       18.2775847 magnetization       0.1946030

 DIPCOR: dipole corrections for dipol
 direction  3 min pos     1,
 dipolmoment           0.000000      0.000000      5.544638 electrons x Angstroem
 Tr[quadrupol]    -17444.416164

 energy correction for charged system         1.920850 eV
 dipol+quadrupol energy correction           -2.553708 eV
 added-field ion interaction        205.264453 eV  (added to PSCEN)


 Broyden mixing:
[...]
      1.76777      0.00209      1.76777        -0.000299      0.000613      0.416585
      1.77090      1.77539     10.63089        -0.000142     -0.000226     -4.377267
      2.65063      0.89055      2.65063         0.000362     -0.000683      0.449300
      0.88383      0.88998      0.88383        -0.000522      0.000893      0.215033
      0.87876      2.66169      2.65449        -0.001002      0.000346      0.449754
      2.65449      2.66169      0.87876         0.000941      0.000684      0.209107
      3.54357      0.00478     10.63129         0.005246      0.000111     -4.377954
      3.53879      1.76839      1.75866         0.000076      0.000576      0.418013
      5.31456      0.01645      1.75808         0.000424     -0.002538      0.420738
      5.31750      1.77339      0.00000        -0.001962     -0.000214     -2.245652
      6.20325      0.89158      2.65502        -0.001133     -0.000011      0.451381
      4.42922      0.89168      0.87618        -0.000861     -0.001006      0.209628
      4.42356      2.64328      2.63951         0.001418      0.001846      0.451998
      6.20266      2.65503      0.88106         0.001387      0.001102      0.213640
      7.09143      0.00478      0.00371         0.000803      0.000891     -2.240946
      7.08998      1.77601      1.77272        -0.001954     -0.000291      0.419963
      8.86074      0.00370      1.77426        -0.000997      0.000216      0.418771
      8.86410      1.77539      0.00411        -0.001642      0.001056     -2.240701
      9.74573      0.88977      2.65815        -0.001532      0.000763      0.450840
      7.97685      0.88977      0.88927        -0.001639      0.000451      0.222436
      7.97418      2.66235      2.66082        -0.001606      0.001092      0.450833
      9.74706      2.66318      0.88794        -0.000498      0.000114      0.220317
      0.00000      3.54793      0.00000        -0.002211     -0.000571     -2.243095
     10.62532      5.32124      1.76881         0.000037     -0.001060      0.418045
      1.76216      3.54536      1.76216        -0.000179     -0.000885      0.416660
      1.76881      5.32124     10.62532        -0.003030     -0.001877     -4.378302
      2.64236      4.42807      2.64236         0.000409      0.001692      0.450861
      0.88084      4.43520      0.88084         0.000660      0.000667      0.212411
      0.87093      6.20778      2.64692         0.000050     -0.000427      0.449644
      2.64692      6.20778      0.87093         0.001453      0.002624      0.201398
      3.54286      3.54752     10.62849        -0.000706     -0.000948     -4.376369
      3.52260      5.31979      1.74957         0.001034     -0.004437      0.416809
      5.31551      3.53029      1.75533        -0.003943      0.001348      0.418625
      5.31750      5.32140      0.00000         0.001195      0.000319     -2.241091
      6.19493      4.41873      2.64951         0.002563      0.000987      0.451213
      4.42708      4.43146      0.87796         0.001297      0.000960      0.208751
      4.41513      6.19585      2.63164         0.000397      0.006342      0.451061
      6.20206      6.20730      0.89085        -0.001137     -0.001377      0.222708
      7.09214      3.54752      0.00651        -0.002110      0.003280     -2.240131
      7.08239      5.32326      1.78360        -0.001776      0.000145      0.418535
      8.85891      3.54981      1.77609        -0.000747     -0.000385      0.418728
      8.86619      5.32124      0.00968        -0.002205      0.003780     -2.238501
      9.73971      4.43761      2.66115        -0.001497     -0.000137      0.449661
      7.97385      4.43761      0.89529        -0.000914     -0.000281      0.227712
      7.95019      6.21883      2.68481        -0.001385     -0.006968      0.451722
      9.74533      6.20925      0.88967        -0.000330     -0.001582      0.222827
      0.00000      7.09374     10.63500        -0.003543     -0.000644     -4.374796
     10.62960      8.86581      1.77129        -0.000965      0.000685      0.418010
      1.75609      7.09555      1.75609         0.001159     -0.002818      0.417732
      1.77129      8.86581     10.62960         0.000973     -0.000132     -4.377579
      2.63308      7.98364      2.63308         0.000472      0.001781      0.449446
      0.87893      7.98144      0.87893         0.000855      0.001645      0.211065
      0.87899      9.75383      2.65488        -0.000555      0.000305      0.449485
      2.65488      9.75383      0.87899        -0.000483      0.000407      0.209418
      3.54359      7.09393     10.62833         0.000449     -0.000968     -4.377095
      3.54038      8.87188      1.76094        -0.000296     -0.001234      0.416606
      5.31631      7.09453      1.77125         0.000093     -0.000643      0.416865
      5.31750      8.86830      0.00000         0.001345      0.000112     -2.239693
      6.20300      7.98350      2.66471        -0.011500     -0.006781      0.453216
      4.42950      7.98015      0.88252        -0.001257     -0.000580      0.212517
      4.43023      9.77937      2.63409        -0.004422     -0.004574      0.450413
      6.20382      9.75699      0.88341        -0.004751     -0.003220      0.216086
      7.09141      7.09393      0.00667        -0.000323     -0.000707     -2.235922
      7.08398      8.87294      1.77016         0.005828     -0.001333      0.421578
      8.85541      7.09079      1.77959        -0.001716      0.003713      0.420278
      8.86371      8.86581      0.00540        -0.000802      0.001534     -2.238241
      9.74236      7.98111      2.66136         0.000097     -0.001165      0.450590
      7.97364      7.98111      0.89264        -0.001794     -0.001832      0.223788
      7.97405      9.75366      2.66095        -0.001063      0.000267      0.450776
      9.74688      9.75280      0.88812        -0.000785      0.001408      0.220478
     10.63129      0.00478      3.54357        -0.001290     -0.000673      0.448953
      0.00000      1.77339      5.31750        -0.000281      0.000083      0.450985
      1.75808      0.01645      5.31456         0.002097     -0.002146      0.451671
      1.75866      1.76839      3.53879         0.001332      0.000763      0.448338
      2.65502      0.89158      6.20325         0.002369      0.000105      0.449530
      0.87618      0.89168      4.42922         0.001200     -0.000993      0.451321
      0.88106      2.65503      6.20266         0.001248      0.000540      0.451089
      2.63951      2.64328      4.42356         0.002538      0.002086      0.454172
      3.53682      0.01429      3.53682         0.000568     -0.000224      0.451041
      3.53975      1.77188      5.31475         0.002795      0.000925      0.449929
      5.31750      0.00953      5.31750        -0.000831     -0.002813      0.450805
      5.31475      1.77188      3.53975        -0.000451      0.000704      0.452406
      6.20695      0.89165      6.20695        -0.000953     -0.001225      0.449189
      4.42805      0.89165      4.42805         0.001769     -0.001356      0.451604
      4.42975      2.65558      6.20525         0.000862      0.004287      0.449601
      6.20525      2.65558      4.42975        -0.001980      0.002907      0.451423
      7.09016      0.00780      3.54484        -0.001649     -0.001841      0.450683
      7.09525      1.77188      5.32025        -0.003097      0.001382      0.451232
      8.87692      0.01645      5.32044        -0.003037     -0.001779      0.451690
      8.86228      1.77601      3.54502        -0.002246     -0.000428      0.451698
      9.75882      0.89168      6.20578         0.000005     -0.000249      0.451707
      7.97998      0.89158      4.43175        -0.002065     -0.000296      0.451566
      7.99549      2.64328      6.21144        -0.001643     -0.000056      0.453684
      9.75394      2.65503      4.43234        -0.001473      0.001335      0.450471
     10.62849      3.54752      3.54286         0.000096      0.000630      0.450249
      0.00000      5.32140      5.31750        -0.000082     -0.000413      0.450751
      1.75533      3.53029      5.31551         0.003286      0.002514      0.447772
      1.74957      5.31979      3.52260        -0.000338     -0.000963      0.449217
      2.64951      4.41873      6.19493         0.004078      0.002512      0.453704
      0.87796      4.43146      4.42708         0.000126      0.000542      0.450712
      0.89085      6.20730      6.20206         0.002168     -0.001491      0.449430
      2.63164      6.19585      4.41513        -0.000050      0.002110      0.450295
      3.51229      3.50155      3.51229         0.002408      0.005041      0.444635
      3.44167      5.21309      5.22995         0.013410      0.001722      0.442023
      5.31750      3.52578      5.31750         0.002113      0.007333      0.451003
      5.22995      5.21309      3.44167         0.004766      0.000639      0.435353
      6.25288      4.36642      6.25288        -0.004328     -0.003394      0.462497
      4.38212      4.36642      4.38212         0.000647      0.008867      0.463448
      7.08719      3.54538      3.54781        -0.003440      0.001831      0.453376
      7.19333      5.21309      5.40505         0.008931      0.005469      0.452638
      8.87967      3.53029      5.31949        -0.001890      0.001568      0.452421
      8.85140      5.32326      3.55261        -0.000057      0.000185      0.451450
      9.75704      4.43146      6.20792         0.000402      0.000865      0.450145
      7.98550      4.41873      4.44007        -0.001443      0.001581      0.447177
      8.00336      6.19585      6.21987        -0.000583      0.001944      0.452739
      9.74415      6.20730      4.43294        -0.000989     -0.000642      0.451245
     10.62833      7.09393      3.54359        -0.001598     -0.001104      0.450131
      0.00000      8.86830      5.31750         0.000220     -0.000586      0.450253
      1.77125      7.09453      5.31631         0.002032      0.001882      0.449917
      1.76094      8.87188      3.54038        -0.000743     -0.000970      0.449750
      2.66471      7.98350      6.20300         0.002097     -0.003690      0.456937
      0.88252      7.98015      4.42950        -0.000326     -0.001779      0.449773
      0.88341      9.75699      6.20382         0.000461      0.000124      0.452419
      2.63409      9.77937      4.43023         0.004183     -0.004993      0.445718
      3.51166      7.11595      3.51166        -0.001538     -0.004913      0.450483
      3.51916      8.90292      5.30489         0.001757     -0.003982      0.457956
      5.30489      8.90292      3.51916         0.006006     -0.000284      0.454752
      6.31365      8.12789      6.31365        -0.000873      0.004933      0.473819
      4.32135      8.12789      4.32135         0.000495     -0.011121      0.455552
      4.43151      9.76381      6.20349         0.002005     -0.004393      0.450201
      6.20349      9.76381      4.43151        -0.000582     -0.002790      0.451841
      7.08861      7.12560      3.54639         0.008042     -0.007622      0.439565
      7.11584      8.90292      5.33011        -0.003870     -0.001287      0.449811
      8.86375      7.09453      5.31869         0.000140     -0.000947      0.450545
      8.86484      8.87294      3.55102        -0.004085     -0.002375      0.444279
      9.75248      7.98015      6.20550         0.000612      0.000042      0.451611
      7.97029      7.98350      4.43200        -0.002533     -0.003874      0.462317
      8.00091      9.77937      6.20477         0.000534     -0.003185      0.449909
      9.75159      9.75699      4.43118        -0.001511     -0.001614      0.454329
      0.00371      0.00478      7.09143         0.000340      0.000623      0.448340
      0.00411      1.77539      8.86410         0.000456      0.000471      0.346310
      1.77426      0.00370      8.86074         0.001702      0.000424      0.346074
      1.77272      1.77601      7.08998         0.001290     -0.000565      0.448876
      2.65815      0.88977      9.74573         0.000719      0.000951     -0.860558
      0.88927      0.88977      7.97685         0.001314      0.000190      0.442844
      0.88794      2.66318      9.74706         0.001151     -0.001769     -0.866282
      2.66082      2.66235      7.97418         0.001940      0.000345      0.440889
      3.54484      0.00780      7.09016         0.000446     -0.002348      0.448869
      3.54502      1.77601      8.86228         0.002516      0.000119      0.346372
      5.32044      0.01645      8.87692         0.001345     -0.000509      0.345303
      5.32025      1.77188      7.09525         0.000484      0.001539      0.447435
      6.20578      0.89168      9.75882        -0.001514      0.000305     -0.915203
      4.43175      0.89158      7.97998         0.001409     -0.000442      0.441381
      4.43234      2.65503      9.75394         0.005411     -0.001662     -0.892828
      6.21144      2.64328      7.99549         0.000884     -0.000132      0.443428
      7.09818      0.01429      7.09818        -0.001696     -0.000701      0.450066
      7.09621      1.76839      8.87634        -0.002355      0.001619      0.342229
      8.86723      0.00209      8.86723         0.000228      0.001194      0.346733
      8.87634      1.76839      7.09621        -0.001075      0.000548      0.448290
      9.75117      0.88998      9.75117         0.001228     -0.000191     -0.883416
      7.98437      0.89055      7.98437         0.000405     -0.001213      0.443234
      7.98051      2.66169      9.75624         0.001512     -0.001769     -0.905105
      9.75624      2.66169      7.98051         0.001584     -0.000759      0.443921
      0.00651      3.54752      7.09214        -0.000240      0.000062      0.450267
      0.00968      5.32124      8.86619         0.000627      0.000521      0.346892
      1.77609      3.54981      8.85891         0.001324      0.000389      0.347957
      1.78360      5.32326      7.08239         0.002809      0.000995      0.449991
      2.66115      4.43761      9.73971         0.000668     -0.001015     -0.835223
      0.89529      4.43761      7.97385         0.001000     -0.000436      0.441670
      0.88967      6.20925      9.74533        -0.000817     -0.001596     -0.854470
      2.68481      6.21883      7.95019         0.006018      0.008627      0.438633
      3.54781      3.54538      7.08719         0.002436      0.004152      0.448585
      3.55261      5.32326      8.85140         0.001561      0.000124      0.346177
      5.31949      3.53029      8.87967        -0.007959      0.002505      0.341630
      5.40505      5.21309      7.19333         0.003298      0.011027      0.443435
      6.20792      4.43146      9.75704         0.001618     -0.000252     -0.909890
      4.44007      4.41873      7.98550         0.009319      0.002256      0.441482
      4.43294      6.20730      9.74415         0.001188      0.000068     -0.856200
      6.21987      6.19585      8.00336         0.003298     -0.013113      0.448148
      7.12271      3.50155      7.12271        -0.002608      0.006372      0.436103
      7.11240      5.31979      8.88543        -0.002577      0.010740      0.340607
      8.87284      3.54536      8.87284        -0.001116      0.001317      0.343005
      8.88543      5.31979      7.11240        -0.002434     -0.000019      0.447054
      9.75416      4.43520      9.75416         0.002478     -0.004336     -0.896913
      7.99264      4.42807      7.99264        -0.000388      0.000087      0.445148
      7.98808      6.20778      9.76407         0.004036     -0.006929     -0.938920
      9.76407      6.20778      7.98808         0.000591     -0.000626      0.444015
      0.00667      7.09393      7.09141         0.001785     -0.001176      0.449928
      0.00540      8.86581      8.86371         0.001273      0.000799      0.346571
      1.77959      7.09079      8.85541        -0.000032     -0.003858      0.349927
      1.77017      8.87294      7.08398         0.000453      0.001437      0.443520
      2.66136      7.98111      9.74236         0.000391      0.000532     -0.845047
      0.89264      7.98111      7.97364         0.000802     -0.001249      0.443186
      0.88812      9.75280      9.74688         0.000415      0.001431     -0.864867
      2.66095      9.75366      7.97405         0.001760     -0.001131      0.442892
      3.54639      7.12560      7.08861         0.015004      0.005979      0.456994
      3.55102      8.87294      8.86484         0.009159      0.002381      0.350176
      5.31869      7.09453      8.86375         0.000912      0.000215      0.341377
      5.33011      8.90292      7.11584         0.002669     -0.006650      0.448404
      6.20550      7.98015      9.75248         0.000182      0.000765     -0.889806
      4.43200      7.98350      7.97029        -0.014123     -0.002157      0.441699
      4.43118      9.75699      9.75159        -0.004731      0.005460     -0.882829
      6.20477      9.77937      8.00091        -0.001144     -0.003814      0.440654
      7.12334      7.11595      7.12334        -0.002555      0.006630      0.452700
      7.09462      8.87188      8.87406        -0.000080     -0.000942      0.345608
      8.87892      7.09555      8.87892         0.000648     -0.000615      0.345687
      8.87406      8.87188      7.09462         0.000408     -0.000834      0.451147
      9.75607      7.98144      9.75607         0.000728     -0.002758     -0.905180
      8.00192      7.98364      8.00192        -0.004162     -0.003831      0.438567
      7.98012      9.75383      9.75601        -0.000720      0.000135     -0.905746
      9.75601      9.75383      7.98012         0.000879     -0.000012      0.443509
      5.31750      6.46025      5.31750        -0.047670      0.007461      0.412387
 -----------------------------------------------------------------------------------
    total drift:                               -0.000003      0.000090    -96.335263


--------------------------------------------------------------------------------------------------------



  FREE ENERGIE OF THE ION-ELECTRON SYSTEM (eV)
  ---------------------------------------------------
  free  energy   TOTEN  =     -1908.23135809 eV

  energy  without entropy=    -1908.23135809  energy(sigma->0) =    -1908.23135809
 


--------------------------------------------------------------------------------------------------------


    POTLOK:  cpu time    0.3707: real time    0.3791


--------------------------------------------------------------------------------------------------------


 writing wavefunctions
     LOOP+:  cpu time  375.1284: real time  376.8236
    4ORBIT:  cpu time    0.0000: real time    0.0000

 total amount of memory used by VASP MPI-rank0    74804. kBytes
=======================================================================

   base      :      30000. kBytes
   nonl-proj :       4817. kBytes
   fftplans  :       6905. kBytes
   grid      :      17821. kBytes
   one-center:       1327. kBytes
   wavefun   :      13934. kBytes
 
  
  
 General timing and accounting informations for this job:
 ========================================================
  
                  Total CPU time used (sec):      387.097
                            User time (sec):      379.817
                          System time (sec):        7.279
                         Elapsed time (sec):      390.406
  
                   Maximum memory used (kb):      377916.
                   Average memory used (kb):          N/A
  
                          Minor page faults:       171175
                          Major page faults:            0
                 Voluntary context switches:         2885
