 vasp.6.2.1 16May21 (build Sep 27 2021 21:11:04) gamma-only                     
  
 executed on             LinuxIFC date 2023.05.03  23:32:57
 running   24 mpi-ranks, with    1 threads/rank
 distrk:  each k-point on   24 cores,    1 groups
 distr:  one band on NCORE=   8 cores,    3 groups


--------------------------------------------------------------------------------------------------------


 INCAR:
   GGA = PE
   ISTART = 1
   ISPIN = 2
   ENCUT = 370
   ENAUG = 740
   EDIFF = 1E-5
   IBRION = 2
   POTIM = 0.2
   ALGO = All
   NSW = 0
   EDIFFG = -1E-2
   ISMEAR = 0
   SIGMA = 0.01
   ISIF = 1
   LREAL = .FALSE.
   ISYM = 0
   PREC = Accurate
   LHFCALC = .TRUE.
   HFSCREEN = 0.2
   NCORE = 8
   NELM = 60
   NWRITE = 2
   SYMPREC = 1.0e-8

 POTCAR:    PAW_PBE C 08Apr2002                   
 POTCAR:    PAW_PBE Pa 07Sep2000                  
 -----------------------------------------------------------------------------
|                                                                             |
|           W    W    AA    RRRRR   N    N  II  N    N   GGGG   !!!           |
|           W    W   A  A   R    R  NN   N  II  NN   N  G    G  !!!           |
|           W    W  A    A  R    R  N N  N  II  N N  N  G       !!!           |
|           W WW W  AAAAAA  RRRRR   N  N N  II  N  N N  G  GGG   !            |
|           WW  WW  A    A  R   R   N   NN  II  N   NN  G    G                |
|           W    W  A    A  R    R  N    N  II  N    N   GGGG   !!!           |
|                                                                             |
|     You use a magnetic or noncollinear calculation, but did not specify     |
|     the initial magnetic moment with the MAGMOM tag. Note that a            |
|     default of 1 will be used for all atoms. This ferromagnetic setup       |
|     may break the symmetry of the crystal, in particular it may rule        |
|     out finding an antiferromagnetic solution. Thence, we recommend         |
|     setting the initial magnetic moment manually or verifying carefully     |
|     that this magnetic setup is desired.                                    |
|                                                                             |
 -----------------------------------------------------------------------------

 POTCAR:    PAW_PBE C 08Apr2002                   
   SHA256 =  253f7b50bb8d59471dbedb8285d89021f4a42ed1a2c5d38a03a736e69125dd95 C/POTCAR              
   COPYR  = (c) Copyright 08Apr2002 Georg Kresse                                                    
   COPYR  = This file is part of the software VASP. Any use, copying, and all other rights are regul
   COPYR  = If you do not have a valid VASP license, you may not use, copy or distribute this file. 
   VRHFIN =C: s2p2                                                                                  
   LEXCH  = PE                                                                                      
   EATOM  =   147.1560 eV,   10.8157 Ry                                                             
                                                                                                    
   TITEL  = PAW_PBE C 08Apr2002                                                                     
   LULTRA =        F    use ultrasoft PP ?                                                          
   IUNSCR =        1    unscreen: 0-lin 1-nonlin 2-no                                               
   RPACOR =    1.200    partial core radius                                                         
   POMASS =   12.011; ZVAL   =    4.000    mass and valenz                                          
   RCORE  =    1.500    outmost cutoff radius                                                       
   RWIGS  =    1.630; RWIGS  =    0.863    wigner-seitz radius (au A)                               
   ENMAX  =  400.000; ENMIN  =  300.000 eV                                                          
   ICORE  =        2    local potential                                                             
   LCOR   =        T    correct aug charges                                                         
   LPAW   =        T    paw PP                                                                      
   EAUG   =  644.873                                                                                
   DEXC   =    0.000                                                                                
   RMAX   =    1.529    core radius for proj-oper                                                   
   RAUG   =    1.300    factor for augmentation sphere                                              
   RDEP   =    1.501    radius for radial grids                                                     
   RDEPT  =    1.300    core radius for aug-charge                                                  
                                                                                                    
   Atomic configuration                                                                             
    4 entries                                                                                       
     n  l   j            E        occ.                                                              
     1  0  0.50      -273.3789   2.0000                                                             
     2  0  0.50       -13.7508   2.0000                                                             
     2  1  0.50        -5.2854   2.0000                                                             
     3  2  1.50        -5.4423   0.0000                                                             
   Description                                                                                      
     l       E           TYP  RCUT    TYP  RCUT                                                     
     0    -13.7508458     23  1.200                                                                 
     0     -8.2022199     23  1.200                                                                 
     1     -5.2854383     23  1.500                                                                 
     1     34.0145650     23  1.500                                                                 
     2     -5.4423304      7  1.500                                                                 
  local pseudopotential read in
  partial core-charges read in
  partial kinetic energy density read in
  atomic valenz-charges read in
  non local Contribution for L=           0  read in
    real space projection operators read in
  non local Contribution for L=           0  read in
    real space projection operators read in
  non local Contribution for L=           1  read in
    real space projection operators read in
  non local Contribution for L=           1  read in
    real space projection operators read in
    PAW grid and wavefunctions read in
 
   number of l-projection  operators is LMAX  =           4
   number of lm-projection operators is LMMAX =           8
 
 POTCAR:    PAW_PBE Pa 07Sep2000                  
   SHA256 =  04e32654b760de29c7f02015f2c4b9b92aeb120699210996a29249ba80bfa323 Pa/POTCAR             
   COPYR  = (c) Copyright 07Sep2000 Georg Kresse                                                    
   COPYR  = This file is part of the software VASP. Any use, copying, and all other rights are regul
   COPYR  = If you do not have a valid VASP license, you may not use, copy or distribute this file. 
   VRHFIN =Pa:  [Xe,5d,4f]                                                                          
   LEXCH  = PE                                                                                      
   EATOM  =  1180.0855 eV,   86.7338 Ry                                                             
                                                                                                    
   TITEL  = PAW_PBE Pa 07Sep2000                                                                    
   LULTRA =        F    use ultrasoft PP ?                                                          
   IUNSCR =        1    unscreen: 0-lin 1-nonlin 2-no                                               
   RPACOR =    2.200    partial core radius                                                         
   POMASS =  229.000; ZVAL   =   13.000    mass and valenz                                          
   RCORE  =    2.800    outmost cutoff radius                                                       
   RWIGS  =    2.900; RWIGS  =    1.535    wigner-seitz radius (au A)                               
   ENMAX  =  252.193; ENMIN  =  189.145 eV                                                          
   RCLOC  =    1.808    cutoff for local pot                                                        
   LCOR   =        T    correct aug charges                                                         
   LPAW   =        T    paw PP                                                                      
   EAUG   =  536.979                                                                                
   DEXC   =    0.000                                                                                
   RMAX   =    2.858    core radius for proj-oper                                                   
   RAUG   =    1.300    factor for augmentation sphere                                              
   RDEP   =    2.921    radius for radial grids                                                     
   RDEPT  =    2.247    core radius for aug-charge                                                  
                                                                                                    
   Atomic configuration                                                                             
   18 entries                                                                                       
     n  l   j            E        occ.                                                              
     1  0  0.50   -112985.5190   2.0000                                                             
     2  0  0.50    -21035.6541   2.0000                                                             
     2  1  1.50    -17527.8639   6.0000                                                             
     3  0  0.50     -5294.0126   2.0000                                                             
     3  1  1.50     -4318.2192   6.0000                                                             
     3  2  2.50     -3460.9455  10.0000                                                             
     4  0  0.50     -1342.3530   2.0000                                                             
     4  1  1.50     -1023.6497   6.0000                                                             
     4  2  2.50      -699.1199  10.0000                                                             
     4  3  3.50      -353.3721  14.0000                                                             
     5  0  0.50      -298.9475   2.0000                                                             
     5  1  1.50      -201.1573   6.0000                                                             
     5  2  2.50       -97.1791  10.0000                                                             
     6  0  0.50       -48.3074   2.0000                                                             
     7  0  0.50        -4.5039   2.0000                                                             
     6  1  1.50       -24.3672   6.0000                                                             
     6  2  1.50        -3.1149   2.0000                                                             
     5  3  2.50        -5.1513   1.0000                                                             
   Description                                                                                      
     l       E           TYP  RCUT    TYP  RCUT                                                     
     0    -48.3074378     23  2.800                                                                 
     0     -4.5039177     23  2.800                                                                 
     1    -24.3672020     23  2.500                                                                 
     1    -25.7277846     23  2.500                                                                 
     2     -3.1148861     23  2.500                                                                 
     2      1.7959667     23  2.500                                                                 
     3     -5.1512774     23  2.800                                                                 
     3     -6.5118600     23  2.800                                                                 
  local pseudopotential read in
  partial core-charges read in
  partial kinetic energy density read in
  atomic valenz-charges read in
  non local Contribution for L=           0  read in
    real space projection operators read in
  non local Contribution for L=           0  read in
    real space projection operators read in
  non local Contribution for L=           1  read in
    real space projection operators read in
  non local Contribution for L=           1  read in
    real space projection operators read in
  non local Contribution for L=           2  read in
    real space projection operators read in
  non local Contribution for L=           2  read in
    real space projection operators read in
  non local Contribution for L=           3  read in
    real space projection operators read in
  non local Contribution for L=           3  read in
    real space projection operators read in
    PAW grid and wavefunctions read in
 
   number of l-projection  operators is LMAX  =           8
   number of lm-projection operators is LMMAX =          32
 
 -----------------------------------------------------------------------------
|                                                                             |
|               ----> ADVICE to this user running VASP <----                  |
|                                                                             |
|     You have a (more or less) 'large supercell' and for larger cells it     |
|     might be more efficient to use real-space projection operators.         |
|     Therefore, try LREAL= Auto in the INCAR file.                           |
|     Mind: For very accurate calculation, you might also keep the            |
|     reciprocal projection scheme (i.e. LREAL=.FALSE.).                      |
|                                                                             |
 -----------------------------------------------------------------------------

  PAW_PBE C 08Apr2002                   :
 energy of atom  1       EATOM= -147.1560
 kinetic energy error for atom=    0.0545 (will be added to EATOM!!)
  PAW_PBE Pa 07Sep2000                  :
 energy of atom  2       EATOM=-1180.0855
 kinetic energy error for atom=    0.0045 (will be added to EATOM!!)
 
 
 POSCAR: 3D\Atomistic
  positions in direct lattice
  velocities in cartesian coordinates
 exchange correlation table for  LEXCH =        8
   RHO(1)=    0.500       N(1)  =     2000
   RHO(2)=  100.500       N(2)  =     4000
 


--------------------------------------------------------------------------------------------------------


 ion  position               nearest neighbor table
   1  0.000  0.000  1.000-   6 1.53 162 1.53  72 1.54 196 1.54
   2  1.000  0.167  0.167-   7 1.53  24 1.53  21 1.53   6 1.54
   3  0.166  0.000  0.166-   6 1.53   5 1.53  55 1.54  56 1.54
   4  0.167  0.167  1.000-   8 1.53 148 1.53 146 1.53   6 1.54
   5  0.249  0.084  0.249-  81 1.53   3 1.53  76 1.53  10 1.53
   6  0.083  0.084  0.083-   1 1.53   3 1.53   4 1.54   2 1.54
   7  0.083  0.250  0.250-   2 1.53  76 1.53  97 1.54  27 1.54
   8  0.250  0.250  0.083-   4 1.53  10 1.53  33 1.54  27 1.54
   9  0.333  0.000  1.000- 204 1.53  14 1.53 146 1.53  56 1.53
  10  0.333  0.166  0.165-  15 1.53  14 1.53   8 1.53   5 1.53
  11  0.500  0.002  0.165-  63 1.52  14 1.53  64 1.53  13 1.54
  12  0.500  0.167  1.000- 154 1.53  14 1.53  16 1.53 156 1.53
  13  0.583  0.084  0.250-  18 1.53  84 1.53  89 1.54  11 1.54
  14  0.417  0.084  0.082-  11 1.53  12 1.53  10 1.53   9 1.53
  15  0.416  0.249  0.248- 105 1.53  10 1.53  35 1.54  84 1.54
  16  0.583  0.250  0.083-  35 1.52  12 1.53  41 1.53  18 1.53
  17  0.667  0.000  0.000-  64 1.53 154 1.53  22 1.53 212 1.53
  18  0.667  0.167  0.167-  13 1.53  22 1.53  16 1.53  23 1.53
  19  0.833  0.000  0.167-  22 1.53  21 1.53  72 1.53  71 1.54
  20  0.833  0.167  0.000- 164 1.53  24 1.53  22 1.53 162 1.54
  21  0.916  0.084  0.250-  19 1.53  73 1.53  92 1.53   2 1.53
  22  0.750  0.084  0.084-  19 1.53  17 1.53  18 1.53  20 1.53
  23  0.750  0.250  0.250-  43 1.53 111 1.53  92 1.53  18 1.53
  24  0.917  0.250  0.083-  20 1.53   2 1.53  25 1.54  43 1.54
  25  0.000  0.333  1.000-  30 1.53 186 1.53 148 1.54  24 1.54
  26  0.999  0.500  0.166-  31 1.53  48 1.53  45 1.54  30 1.54
  27  0.166  0.333  0.166-  29 1.53  30 1.53   7 1.54   8 1.54
  28  0.166  0.500  0.999-  32 1.53 172 1.53 170 1.54  30 1.54
  29  0.249  0.416  0.249-  27 1.53 105 1.54 100 1.54  34 1.54
  30  0.083  0.417  0.083-  25 1.53  27 1.53  26 1.54  28 1.54
  31  0.082  0.584  0.249- 100 1.53  26 1.53 119 1.54  51 1.54
  32  0.249  0.584  0.082-  34 1.53  28 1.53  57 1.54  51 1.54
  33  0.333  0.333  0.999-  38 1.53 156 1.53 170 1.53   8 1.54
  34  0.331  0.500  0.165-  32 1.53  39 1.53  38 1.54  29 1.54
  35  0.500  0.332  0.165-  16 1.52  15 1.54  38 1.54  37 1.54
  36  0.500  0.500  1.000- 178 1.53  38 1.53  40 1.54 180 1.54
  37  0.583  0.416  0.249- 108 1.48  42 1.53 111 1.54  35 1.54
  38  0.416  0.417  0.083-  33 1.53  36 1.53  34 1.54  35 1.54
  39  0.415  0.583  0.248- 108 1.52  34 1.53  59 1.54 127 1.56 214 2.85
  40  0.583  0.584  0.084-  59 1.53  42 1.53  65 1.54  36 1.54
  41  0.667  0.333  0.001- 178 1.53  16 1.53  46 1.53 164 1.54
  42  0.666  0.500  0.167-  37 1.53  40 1.53  47 1.54  46 1.54
  43  0.833  0.334  0.167-  45 1.53  46 1.53  23 1.53  24 1.54
  44  0.834  0.500  0.001- 188 1.53  48 1.53  46 1.54 186 1.54
  45  0.916  0.417  0.250-  43 1.53  97 1.53  26 1.54 114 1.54
  46  0.750  0.417  0.084-  43 1.53  41 1.53  44 1.54  42 1.54
  47  0.748  0.584  0.252- 134 1.51  42 1.54 114 1.54  67 1.55
  48  0.916  0.584  0.084-  26 1.53  44 1.53  67 1.54  49 1.54
  49  0.000  0.667  1.000-  54 1.53 210 1.53 172 1.54  48 1.54
  50  1.000  0.834  0.167-  72 1.53  55 1.53  54 1.54  69 1.54
  51  0.165  0.667  0.165-  54 1.53  53 1.53  32 1.54  31 1.54
  52  0.167  0.834  1.000- 196 1.53  56 1.53  54 1.54 194 1.54
  53  0.248  0.751  0.248- 127 1.52  51 1.53 122 1.54  58 1.54
  54  0.083  0.750  0.083-  51 1.53  49 1.53  52 1.54  50 1.54
  55  0.083  0.917  0.250- 122 1.53  50 1.53  73 1.53   3 1.54
  56  0.250  0.917  0.083-  58 1.53  52 1.53   9 1.53   3 1.54
  57  0.333  0.667  0.999- 194 1.53 180 1.54  32 1.54  62 1.54
  58  0.333  0.834  0.166-  56 1.53  62 1.54  53 1.54  63 1.54
  59  0.500  0.667  0.166-  40 1.53  39 1.54  62 1.54  61 1.54
  60  0.500  0.834  1.000- 202 1.53  62 1.53 204 1.53  64 1.53
  61  0.583  0.750  0.251- 134 1.52  59 1.54  66 1.54 129 1.55
  62  0.416  0.750  0.083-  60 1.53  58 1.54  59 1.54  57 1.54
  63  0.417  0.920  0.248-  11 1.52 129 1.52  81 1.54  58 1.54
  64  0.583  0.917  0.083-  17 1.53  66 1.53  60 1.53  11 1.53
  65  0.667  0.667  0.001-  70 1.53  40 1.54 188 1.54 202 1.54
  66  0.666  0.834  0.167-  64 1.53  70 1.53  71 1.54  61 1.54
  67  0.833  0.667  0.167-  69 1.53  70 1.53  48 1.54  47 1.55
  68  0.833  0.834  0.000-  72 1.53 212 1.53 210 1.54  70 1.54
  69  0.916  0.750  0.250- 119 1.53 137 1.53  67 1.53  50 1.54
  70  0.750  0.750  0.084-  65 1.53  66 1.53  67 1.53  68 1.54
  71  0.750  0.917  0.250-  89 1.53 137 1.54  66 1.54  19 1.54
  72  0.916  0.917  0.084-  50 1.53  68 1.53  19 1.53   1 1.54
  73  1.000  0.000  0.333- 141 1.53  78 1.53  21 1.53  55 1.53
  74  0.000  0.167  0.500-  78 1.53  93 1.53  96 1.53  79 1.53
  75  0.165  0.002  0.500- 126 1.52  78 1.53 125 1.53  77 1.54
  76  0.165  0.166  0.333-  80 1.53  78 1.53   7 1.53   5 1.53
  77  0.250  0.084  0.583- 145 1.53  82 1.53 150 1.54  75 1.54
  78  0.082  0.084  0.417-  75 1.53  74 1.53  76 1.53  73 1.53
  79  0.083  0.250  0.583-  99 1.52  74 1.53 166 1.53 145 1.53
  80  0.248  0.249  0.416- 105 1.53  76 1.53  99 1.54  82 1.54
  81  0.333  0.001  0.333-   5 1.53  86 1.54  63 1.54 126 1.54
  82  0.333  0.167  0.500-  77 1.53  86 1.53  80 1.54  87 1.54
  83  0.500  0.001  0.500- 133 1.53 132 1.53  85 1.54  86 1.54
  84  0.500  0.167  0.333-  13 1.53  86 1.53  15 1.54  88 1.54
  85  0.584  0.084  0.584- 153 1.53  90 1.53  83 1.54 158 1.54
  86  0.416  0.084  0.416-  82 1.53  84 1.53  83 1.54  81 1.54
  87  0.417  0.250  0.583- 107 1.53 174 1.53 153 1.54  82 1.54
  88  0.583  0.250  0.417- 107 1.53 111 1.53  90 1.54  84 1.54
  89  0.667  0.001  0.333- 133 1.53  71 1.53  94 1.54  13 1.54
  90  0.667  0.167  0.500-  94 1.53  85 1.53  95 1.54  88 1.54
  91  0.835  0.002  0.500- 140 1.52  93 1.53 141 1.53  94 1.54
  92  0.833  0.167  0.333-  94 1.53  21 1.53  96 1.53  23 1.53
  93  0.918  0.084  0.583-  91 1.53  74 1.53 161 1.53 142 1.53
  94  0.750  0.084  0.417-  92 1.53  90 1.53  89 1.54  91 1.54
  95  0.752  0.249  0.584- 182 1.53 161 1.53 113 1.54  90 1.54
  96  0.917  0.250  0.417- 113 1.52  74 1.53  97 1.53  92 1.53
  97  0.999  0.333  0.333- 102 1.53  96 1.53  45 1.53   7 1.54
  98  0.000  0.500  0.500- 102 1.53 115 1.53 118 1.54 103 1.54
  99  0.165  0.332  0.500-  79 1.52  80 1.54 102 1.54 101 1.54
 100  0.165  0.500  0.331-  31 1.53 104 1.53 102 1.54  29 1.54
 101  0.249  0.416  0.583- 106 1.48 169 1.53 174 1.54  99 1.54
 102  0.083  0.417  0.416-  97 1.53  98 1.53 100 1.54  99 1.54
 103  0.084  0.584  0.583- 121 1.53 169 1.53 190 1.54  98 1.54
 104  0.248  0.583  0.415- 106 1.52 100 1.53 121 1.54 127 1.56 214 2.85
 105  0.330  0.330  0.330- 110 1.51  80 1.53  15 1.53  29 1.54
 106  0.325  0.491  0.492- 101 1.48 104 1.52 110 1.52 214 2.28
 107  0.500  0.331  0.500-  87 1.53  88 1.53 110 1.57 109 1.57
 108  0.492  0.491  0.325-  37 1.48  39 1.52 110 1.52 214 2.28
 109  0.587  0.411  0.587- 182 1.51 112 1.52 177 1.52 107 1.57 214 2.51
 110  0.413  0.411  0.413- 105 1.51 108 1.52 106 1.52 107 1.57 214 2.51
 111  0.666  0.333  0.334-  88 1.53  23 1.53 116 1.54  37 1.54
 112  0.675  0.491  0.508- 116 1.48 117 1.52 109 1.52 214 2.28
 113  0.835  0.332  0.500-  96 1.52  95 1.54 115 1.54 116 1.54
 114  0.833  0.500  0.334- 116 1.53 118 1.53  47 1.54  45 1.54
 115  0.917  0.417  0.584- 166 1.53  98 1.53 185 1.54 113 1.54
 116  0.751  0.416  0.417- 112 1.48 114 1.53 111 1.54 113 1.54
 117  0.752  0.583  0.585- 112 1.52 185 1.53 136 1.54 206 1.56 214 2.85
 118  0.916  0.584  0.417- 136 1.53 114 1.53 119 1.54  98 1.54
 119  0.999  0.667  0.333-  69 1.53 118 1.54  31 1.54 124 1.54
 120  0.000  0.834  0.500- 124 1.53 138 1.53 125 1.53 141 1.53
 121  0.166  0.667  0.500- 103 1.53 104 1.54 124 1.54 123 1.54
 122  0.166  0.834  0.333-  55 1.53 124 1.54  53 1.54 126 1.54
 123  0.251  0.750  0.583- 198 1.52 121 1.54 193 1.54 128 1.55
 124  0.083  0.750  0.416- 120 1.53 122 1.54 121 1.54 119 1.54
 125  0.083  0.917  0.583- 142 1.53 193 1.53 120 1.53  75 1.53
 126  0.248  0.920  0.417-  75 1.52 128 1.52  81 1.54 122 1.54
 127  0.330  0.669  0.330-  53 1.52 131 1.54 104 1.56  39 1.56 214 2.62
 128  0.331  0.838  0.499- 131 1.49 126 1.52 132 1.54 123 1.55
 129  0.499  0.838  0.331- 131 1.49  63 1.52 133 1.54  61 1.55
 130  0.594  0.765  0.594- 201 1.49 135 1.49 206 1.54 214 2.15
 131  0.406  0.765  0.406- 128 1.49 129 1.49 127 1.54 214 2.15
 132  0.417  0.919  0.583- 150 1.53  83 1.53 128 1.54 201 1.54
 133  0.583  0.919  0.417-  89 1.53  83 1.53 129 1.54 135 1.54
 134  0.667  0.669  0.333-  47 1.51 139 1.52  61 1.52 214 2.59
 135  0.669  0.838  0.501- 130 1.49 140 1.52 133 1.54 139 1.55
 136  0.834  0.667  0.500- 118 1.53 117 1.54 138 1.54 139 1.54
 137  0.833  0.834  0.334- 141 1.53  69 1.53  71 1.54 139 1.54
 138  0.917  0.750  0.584- 120 1.53 209 1.54 136 1.54 190 1.54
 139  0.749  0.750  0.417- 134 1.52 136 1.54 137 1.54 135 1.55
 140  0.752  0.920  0.583-  91 1.52 135 1.52 158 1.54 209 1.54
 141  0.917  0.917  0.417-  73 1.53 137 1.53 120 1.53  91 1.53
 142  0.000  0.000  0.667- 125 1.53  93 1.53 147 1.53 213 1.53
 143  0.000  0.167  0.833- 165 1.53 148 1.53 147 1.53 162 1.54
 144  0.167  0.000  0.833- 146 1.53 147 1.53 196 1.53 197 1.54
 145  0.167  0.167  0.667-  77 1.53 147 1.53  79 1.53 149 1.53
 146  0.250  0.084  0.916- 144 1.53   9 1.53 151 1.53   4 1.53
 147  0.084  0.084  0.750- 144 1.53 142 1.53 145 1.53 143 1.53
 148  0.083  0.250  0.917- 143 1.53   4 1.53  25 1.54 168 1.54
 149  0.250  0.250  0.750- 168 1.53 174 1.53 151 1.53 145 1.53
 150  0.333  0.001  0.667- 132 1.53 197 1.53 155 1.54  77 1.54
 151  0.333  0.167  0.833- 155 1.53 146 1.53 156 1.53 149 1.53
 152  0.500  0.002  0.835- 205 1.52 154 1.53 204 1.53 155 1.54
 153  0.500  0.167  0.667- 155 1.53  85 1.53 157 1.54  87 1.54
 154  0.583  0.084  0.918- 152 1.53  12 1.53 159 1.53  17 1.53
 155  0.417  0.084  0.750- 151 1.53 153 1.53 150 1.54 152 1.54
 156  0.417  0.250  0.917- 176 1.52  12 1.53  33 1.53 151 1.53
 157  0.584  0.249  0.752- 182 1.53 159 1.53 176 1.54 153 1.54
 158  0.667  0.001  0.667- 163 1.53  85 1.54 140 1.54 205 1.54
 159  0.667  0.166  0.835- 157 1.53 154 1.53 164 1.53 163 1.53
 160  0.834  0.000  0.834- 162 1.53 163 1.53 212 1.54 213 1.54
 161  0.835  0.166  0.667-  95 1.53  93 1.53 165 1.53 163 1.53
 162  0.917  0.084  0.917-   1 1.53 160 1.53 143 1.54  20 1.54
 163  0.751  0.084  0.751- 158 1.53 160 1.53 159 1.53 161 1.53
 164  0.750  0.250  0.917-  20 1.53 159 1.53  41 1.54 184 1.54
 165  0.917  0.250  0.750- 143 1.53 161 1.53 166 1.54 184 1.54
 166  0.001  0.333  0.667- 115 1.53  79 1.53 171 1.53 165 1.54
 167  0.001  0.500  0.834- 189 1.53 172 1.53 171 1.54 186 1.54
 168  0.167  0.334  0.833- 171 1.53 170 1.53 149 1.53 148 1.54
 169  0.167  0.500  0.666- 101 1.53 103 1.53 173 1.54 171 1.54
 170  0.250  0.417  0.916- 168 1.53  33 1.53  28 1.54 175 1.54
 171  0.084  0.417  0.750- 168 1.53 166 1.53 167 1.54 169 1.54
 172  0.084  0.584  0.916-  28 1.53 167 1.53 192 1.54  49 1.54
 173  0.252  0.584  0.748- 198 1.51 175 1.54 169 1.54 192 1.55
 174  0.334  0.333  0.666-  87 1.53 149 1.53 101 1.54 179 1.54
 175  0.334  0.500  0.833- 179 1.53 180 1.53 173 1.54 170 1.54
 176  0.500  0.332  0.835- 156 1.52 157 1.54 178 1.54 179 1.54
 177  0.508  0.491  0.675- 179 1.48 181 1.52 109 1.52 214 2.28
 178  0.584  0.417  0.917-  41 1.53  36 1.53 183 1.54 176 1.54
 179  0.417  0.416  0.751- 177 1.48 175 1.53 174 1.54 176 1.54
 180  0.417  0.584  0.916- 200 1.53 175 1.53  57 1.54  36 1.54
 181  0.585  0.583  0.752- 177 1.52 183 1.53 200 1.54 206 1.56 214 2.85
 182  0.670  0.330  0.670- 109 1.51 157 1.53  95 1.53 187 1.54
 183  0.669  0.500  0.835- 188 1.53 181 1.53 178 1.54 187 1.54
 184  0.834  0.333  0.834- 187 1.53 186 1.53 164 1.54 165 1.54
 185  0.835  0.500  0.669- 189 1.53 117 1.53 115 1.54 187 1.54
 186  0.917  0.417  0.917-  25 1.53 184 1.53  44 1.54 167 1.54
 187  0.751  0.416  0.751- 184 1.53 182 1.54 183 1.54 185 1.54
 188  0.751  0.584  0.918- 183 1.53  44 1.53  65 1.54 208 1.54
 189  0.918  0.584  0.751- 185 1.53 167 1.53 190 1.54 208 1.54
 190  0.001  0.667  0.667- 195 1.53 103 1.54 189 1.54 138 1.54
 191  0.000  0.834  0.833- 196 1.53 213 1.53 210 1.54 195 1.54
 192  0.167  0.667  0.833- 194 1.53 195 1.53 172 1.54 173 1.55
 193  0.167  0.834  0.666- 125 1.53 195 1.53 197 1.54 123 1.54
 194  0.250  0.750  0.916-  57 1.53 199 1.53 192 1.53  52 1.54
 195  0.084  0.750  0.750- 190 1.53 193 1.53 192 1.53 191 1.54
 196  0.084  0.917  0.916-  52 1.53 191 1.53 144 1.53   1 1.54
 197  0.250  0.917  0.750- 150 1.53 193 1.54 199 1.54 144 1.54
 198  0.333  0.669  0.667- 173 1.51 203 1.52 123 1.52 214 2.59
 199  0.334  0.834  0.833- 204 1.53 194 1.53 197 1.54 203 1.54
 200  0.500  0.667  0.834- 180 1.53 181 1.54 202 1.54 203 1.54
 201  0.501  0.838  0.669- 130 1.49 205 1.52 132 1.54 203 1.55
 202  0.584  0.750  0.917-  60 1.53 207 1.54 200 1.54  65 1.54
 203  0.417  0.750  0.749- 198 1.52 200 1.54 199 1.54 201 1.55
 204  0.417  0.917  0.917-   9 1.53 199 1.53  60 1.53 152 1.53
 205  0.583  0.920  0.752- 152 1.52 201 1.52 158 1.54 207 1.54
 206  0.670  0.669  0.670- 211 1.52 130 1.54 181 1.56 117 1.56 214 2.62
 207  0.667  0.834  0.834- 212 1.53 202 1.54 211 1.54 205 1.54
 208  0.835  0.667  0.835- 210 1.53 211 1.53 189 1.54 188 1.54
 209  0.834  0.834  0.667- 213 1.53 138 1.54 211 1.54 140 1.54
 210  0.917  0.750  0.917- 208 1.53  49 1.53 191 1.54  68 1.54
 211  0.752  0.751  0.752- 206 1.52 208 1.53 207 1.54 209 1.54
 212  0.750  0.917  0.917- 207 1.53  68 1.53  17 1.53 160 1.54
 213  0.917  0.917  0.750- 209 1.53 191 1.53 142 1.53 160 1.54
 214  0.500  0.613  0.500- 130 2.15 131 2.15 177 2.28 106 2.28 112 2.28 108 2.28 109 2.51 110 2.51
                           198 2.59 134 2.59 206 2.62 127 2.62 181 2.85 104 2.85 117 2.85  39 2.85
 

IMPORTANT INFORMATION: All symmetrisations will be switched off!
NOSYMM: (Re-)initialisation of all symmetry stuff for point group C_1.


----------------------------------------------------------------------------------------

                                     Primitive cell                                     

  volume of cell :    1202.8529

  direct lattice vectors                    reciprocal lattice vectors
    10.635000229  0.000000000  0.000000000     0.094029147  0.000000000  0.000000000
     0.000000000 10.635000229  0.000000000     0.000000000  0.094029147  0.000000000
     0.000000000  0.000000000 10.635000229     0.000000000  0.000000000  0.094029147

  length of vectors
    10.635000229 10.635000229 10.635000229     0.094029147  0.094029147  0.094029147

  position of ions in fractional coordinates (direct lattice)
     0.000000744  0.000170676  0.999999259
     0.999616585  0.166831790  0.166513082
     0.166219956  0.000151704  0.166219368
     0.166513631  0.166831716  0.999615237
     0.249259024  0.083743986  0.249259476
     0.083115067  0.083613560  0.083114065
     0.082667953  0.250193538  0.249634951
     0.249634811  0.250193781  0.082666754
     0.333160728  0.000306098  0.999562691
     0.332726822  0.166272624  0.165395645
     0.499792971  0.001534136  0.165309805
     0.499999463  0.166881666  0.999998978
     0.583293347  0.083932954  0.249618248
     0.416518476  0.083841328  0.082330439
     0.416050047  0.248769854  0.248342658
     0.583275082  0.249810688  0.082975369
     0.666838683  0.000306870  0.000434986
     0.666670998  0.167016389  0.166684131
     0.833180410  0.000265887  0.166819590
     0.833486921  0.166831792  0.000383413
     0.916370373  0.083598616  0.249965956
     0.750034052  0.083598620  0.083629628
     0.749853345  0.250307201  0.250146673
     0.916526601  0.250306889  0.083473396
     0.000000682  0.333497781  0.999999319
     0.999222364  0.500210857  0.166347394
     0.165688725  0.333249695  0.165688432
     0.166348291  0.500211344  0.999219754
     0.248544697  0.416362599  0.248545218
     0.082865833  0.416930238  0.082864345
     0.082071111  0.583685524  0.249008343
     0.249007960  0.583685955  0.082068551
     0.333111584  0.333497963  0.999427125
     0.331364107  0.499995083  0.164631486
     0.499659396  0.332152171  0.165234322
     0.499998858  0.500272236  0.999997963
     0.582840351  0.415695136  0.249440000
     0.416305501  0.416675642  0.082632490
     0.415417216  0.582757973  0.247776464
     0.583210961  0.583542216  0.083657589
     0.666887702  0.333497296  0.000570363
     0.666068411  0.500319083  0.167448809
     0.833056963  0.333668813  0.166943039
     0.833652603  0.500210855  0.000777630
     0.915979528  0.417086952  0.250160804
     0.749839201  0.417086961  0.084020461
     0.748103241  0.584091233  0.251896763
     0.916429538  0.583699372  0.083570470
     0.000001369  0.666936829  0.999998642
     0.999524447  0.833599745  0.166535674
     0.165245152  0.667113457  0.165244248
     0.166536912  0.833599211  0.999521761
     0.247678713  0.750812217  0.247679629
     0.082694532  0.750431035  0.082692623
     0.082652345  0.917104015  0.249624169
     0.249623840  0.917103700  0.082650717
     0.333200347  0.666950355  0.999428527
     0.332934879  0.834183233  0.165571291
     0.499848823  0.666965750  0.166390540
     0.499998907  0.833756845  0.999998123
     0.583069982  0.750024987  0.250616459
     0.416466617  0.750321757  0.082966579
     0.416507624  0.919618620  0.247532897
     0.583292953  0.917198045  0.083204035
     0.666798133  0.666950396  0.000567412
     0.666355046  0.834003578  0.166609743
     0.832897848  0.666672098  0.167102151
     0.833464326  0.833599739  0.000475556
     0.916129406  0.750310168  0.250159933
     0.749840059  0.750310160  0.083870584
     0.749760926  0.917025610  0.250239079
     0.916496690  0.916997838  0.083503314
     0.999565019  0.000306876  0.333161314
     0.000001020  0.166881669  0.500000539
     0.165310833  0.001533408  0.499794689
     0.165396110  0.166272692  0.332727634
     0.249618662  0.083932067  0.583294497
     0.082332017  0.083841169  0.416519622
     0.082977338  0.249811416  0.583275822
     0.248342376  0.248770115  0.416051932
     0.332582235  0.001373563  0.332584041
     0.332857703  0.166695088  0.499742409
     0.499998661  0.001200213  0.500001345
     0.499740730  0.166694921  0.332858718
     0.583664520  0.083977187  0.583666263
     0.416333738  0.083977182  0.416335482
     0.416536910  0.249722001  0.583463099
     0.583461219  0.249721250  0.416538806
     0.666773527  0.000901593  0.333226485
     0.667141288  0.166694931  0.500259281
     0.834690195  0.001534135  0.500207030
     0.833315873  0.167016386  0.333329004
     0.917669566  0.083841331  0.583481512
     0.750381757  0.083932955  0.416706659
     0.751657331  0.248769873  0.583949958
     0.917024623  0.249810682  0.416724916
     0.999429619  0.333497284  0.333112298
     0.000001998  0.500272236  0.500001142
     0.165235960  0.332153408  0.499661489
     0.164633026  0.499995686  0.331366055
     0.249439955  0.415696227  0.582843201
     0.082634889  0.416675768  0.416307239
     0.083661782  0.583542789  0.583212998
     0.247776051  0.582758355  0.415421161
     0.330185741  0.329561209  0.330186893
     0.324537221  0.490548586  0.492249626
     0.499998943  0.331441333  0.500001096
     0.492244346  0.490548285  0.324538412
     0.587375491  0.411379849  0.587378243
     0.412621790  0.411379824  0.412624547
     0.666415046  0.333302917  0.333584989
     0.675461586  0.490548297  0.507755705
     0.834765656  0.332152173  0.500340616
     0.832551176  0.500319084  0.333931621
     0.917367478  0.416675642  0.583694490
     0.750559992  0.415695141  0.417159691
     0.752223494  0.582757944  0.584582787
     0.916342373  0.583542209  0.416789041
     0.999432564  0.666950402  0.333201860
     0.000001864  0.833756849  0.500001085
     0.166393747  0.666966173  0.499852483
     0.165572289  0.834183191  0.332936713
     0.250617189  0.750024177  0.583073389
     0.082970462  0.750321327  0.416469631
     0.083207058  0.917196873  0.583294705
     0.247532827  0.919617499  0.416510497
     0.330266510  0.668687429  0.330268908
     0.330768465  0.837549974  0.499182635
     0.499178673  0.837551847  0.330770464
     0.593732142  0.765475450  0.593736062
     0.406263968  0.765475459  0.406267879
     0.416643227  0.918561439  0.583356773
     0.583354126  0.918563258  0.416645880
     0.667318959  0.668736065  0.332681064
     0.669229524  0.837551820  0.500821342
     0.833609421  0.666965733  0.500151183
     0.833390248  0.834003585  0.333644949
     0.917033395  0.750321751  0.583533381
     0.749383543  0.750024977  0.416930035
     0.752467096  0.919618615  0.583492380
     0.916795963  0.917198055  0.416707044
     0.000437310  0.000306096  0.666839267
     0.000384764  0.166831714  0.833486363
     0.166820901  0.000264476  0.833179092
     0.166685439  0.167016524  0.666671382
     0.249966017  0.083598179  0.916368762
     0.083631232  0.083598187  0.750033976
     0.083474602  0.250307254  0.916525390
     0.250147350  0.250308684  0.749852653
     0.333225883  0.000899961  0.666774114
     0.333328610  0.167016531  0.833314556
     0.500205311  0.001533399  0.834689159
     0.500257594  0.166695096  0.667142296
     0.583480370  0.083841164  0.917667986
     0.416705494  0.083932071  0.750381327
     0.416724171  0.249811422  0.917022650
     0.583948072  0.248770134  0.751657606
     0.667415958  0.001373556  0.667417762
     0.667272369  0.166272696  0.834603882
     0.833780636  0.000151699  0.833780046
     0.834604349  0.166272623  0.667273173
     0.916885932  0.083613560  0.916884931
     0.750740528  0.083743975  0.750740971
     0.750365049  0.250193543  0.917332033
     0.917333243  0.250193777  0.750365181
     0.000572865  0.333497959  0.666888412
     0.000780251  0.500211343  0.833651715
     0.166944273  0.333670000  0.833055721
     0.167452257  0.500321404  0.666069200
     0.250161573  0.417088707  0.915976508
     0.084023486  0.417088714  0.749838428
     0.083573149  0.583699996  0.916426858
     0.251898695  0.584092879  0.748101323
     0.333584495  0.333305240  0.666415522
     0.333930818  0.500321403  0.832547730
     0.500338524  0.332153422  0.834764012
     0.507750423  0.490548608  0.675462798
     0.583692755  0.416675779  0.917365073
     0.417156843  0.415696239  0.750560047
     0.416787000  0.583542783  0.916338181
     0.584578834  0.582758330  0.752223924
     0.669813089  0.329561236  0.669814246
     0.668633925  0.499995691  0.835366939
     0.834311558  0.333249690  0.834311264
     0.835368472  0.499995081  0.668635887
     0.917135654  0.416930238  0.917134160
     0.751454746  0.416362605  0.751455281
     0.750991640  0.583685521  0.917928868
     0.917931427  0.583685958  0.750992032
     0.000571451  0.666950357  0.666799647
     0.000478246  0.833599210  0.833463087
     0.167105175  0.666671692  0.832894834
     0.166612276  0.834001500  0.666355251
     0.250160418  0.750309552  0.916125963
     0.083874025  0.750309554  0.749839589
     0.083504902  0.916997346  0.916495108
     0.250239849  0.917023368  0.749760146
     0.332684391  0.668732983  0.667315647
     0.333644743  0.834001498  0.833387735
     0.500147522  0.666966151  0.833606226
     0.500817392  0.837549941  0.669231520
     0.583530363  0.750321311  0.917029516
     0.416926619  0.750024169  0.749382819
     0.416705291  0.917196878  0.916792942
     0.583489503  0.919617483  0.752467164
     0.669731067  0.668687396  0.669733484
     0.667063286  0.834183176  0.834427692
     0.834755735  0.667113457  0.834754839
     0.834428692  0.834183226  0.667065115
     0.917307375  0.750431041  0.917305467
     0.752320335  0.750812208  0.752321259
     0.750375831  0.917104007  0.917347657
     0.917349283  0.917103704  0.750376164
     0.499987285  0.612819945  0.500012982

  ion indices of the primitive-cell ions
   primitive index   ion index
                 1           1
                 2           2
                 3           3
                 4           4
                 5           5
                 6           6
                 7           7
                 8           8
                 9           9
                10          10
                11          11
                12          12
                13          13
                14          14
                15          15
                16          16
                17          17
                18          18
                19          19
                20          20
                21          21
                22          22
                23          23
                24          24
                25          25
                26          26
                27          27
                28          28
                29          29
                30          30
                31          31
                32          32
                33          33
                34          34
                35          35
                36          36
                37          37
                38          38
                39          39
                40          40
                41          41
                42          42
                43          43
                44          44
                45          45
                46          46
                47          47
                48          48
                49          49
                50          50
                51          51
                52          52
                53          53
                54          54
                55          55
                56          56
                57          57
                58          58
                59          59
                60          60
                61          61
                62          62
                63          63
                64          64
                65          65
                66          66
                67          67
                68          68
                69          69
                70          70
                71          71
                72          72
                73          73
                74          74
                75          75
                76          76
                77          77
                78          78
                79          79
                80          80
                81          81
                82          82
                83          83
                84          84
                85          85
                86          86
                87          87
                88          88
                89          89
                90          90
                91          91
                92          92
                93          93
                94          94
                95          95
                96          96
                97          97
                98          98
                99          99
               100         100
               101         101
               102         102
               103         103
               104         104
               105         105
               106         106
               107         107
               108         108
               109         109
               110         110
               111         111
               112         112
               113         113
               114         114
               115         115
               116         116
               117         117
               118         118
               119         119
               120         120
               121         121
               122         122
               123         123
               124         124
               125         125
               126         126
               127         127
               128         128
               129         129
               130         130
               131         131
               132         132
               133         133
               134         134
               135         135
               136         136
               137         137
               138         138
               139         139
               140         140
               141         141
               142         142
               143         143
               144         144
               145         145
               146         146
               147         147
               148         148
               149         149
               150         150
               151         151
               152         152
               153         153
               154         154
               155         155
               156         156
               157         157
               158         158
               159         159
               160         160
               161         161
               162         162
               163         163
               164         164
               165         165
               166         166
               167         167
               168         168
               169         169
               170         170
               171         171
               172         172
               173         173
               174         174
               175         175
               176         176
               177         177
               178         178
               179         179
               180         180
               181         181
               182         182
               183         183
               184         184
               185         185
               186         186
               187         187
               188         188
               189         189
               190         190
               191         191
               192         192
               193         193
               194         194
               195         195
               196         196
               197         197
               198         198
               199         199
               200         200
               201         201
               202         202
               203         203
               204         204
               205         205
               206         206
               207         207
               208         208
               209         209
               210         210
               211         211
               212         212
               213         213
               214         214

----------------------------------------------------------------------------------------

 
 
 KPOINTS: 1 x 1 x 1 k-mesh (automatic generation o

Automatic generation of k-mesh.
 Grid dimensions read from file:
 generate k-points for:    1    1    1

 Generating k-lattice:

  Cartesian coordinates                     Fractional coordinates (reciprocal lattice)
     0.094029147  0.000000000  0.000000000     1.000000000  0.000000000  0.000000000
     0.000000000  0.094029147  0.000000000     0.000000000  1.000000000  0.000000000
     0.000000000  0.000000000  0.094029147     0.000000000  0.000000000  1.000000000

  Length of vectors
     0.094029147  0.094029147  0.094029147

  Shift w.r.t. Gamma in fractional coordinates (k-lattice)
     0.000000000  0.000000000  0.000000000

 
 Subroutine IBZKPT returns following result:
 ===========================================
 
 Found      1 irreducible k-points:
 
 Following reciprocal coordinates:
            Coordinates               Weight
  0.000000  0.000000  0.000000      1.000000
 
 Following cartesian coordinates:
            Coordinates               Weight
  0.000000  0.000000  0.000000      1.000000
 
 
 Subroutine IBZKPT_HF returns following result:
 ==============================================
 
 Found      1 k-points in 1st BZ
 the following      1 k-points will be used (e.g. in the exchange kernel)
 Following reciprocal coordinates:   # in IRBZ
  0.000000  0.000000  0.000000    1.00000000   1 t-inv F


--------------------------------------------------------------------------------------------------------




 Dimension of arrays:
   k-points           NKPTS =      1   k-points in BZ     NKDIM =      1   number of bands    NBANDS=    648
   number of dos      NEDOS =    301   number of ions     NIONS =    214
   non local maximal  LDIM  =      8   non local SUM 2l+1 LMDIM =     32
   total plane-waves  NPLWV = 343000
   max r-space proj   IRMAX =      1   max aug-charges    IRDMAX=  17079
   dimension x,y,z NGX =    70 NGY =   70 NGZ =   70
   dimension x,y,z NGXF=   140 NGYF=  140 NGZF=  140
   support grid    NGXF=   140 NGYF=  140 NGZF=  140
   ions per type =             213   1
   NGX,Y,Z   is equivalent  to a cutoff of  10.94, 10.94, 10.94 a.u.
   NGXF,Y,Z  is equivalent  to a cutoff of  21.88, 21.88, 21.88 a.u.

 SYSTEM =  unknown system                          
 POSCAR =  3D\Atomistic                            

 Startparameter for this run:
   NWRITE =      2    write-flag & timer
   PREC   = accura    normal or accurate (medium, high low for compatibility)
   ISTART =      1    job   : 0-new  1-cont  2-samecut
   ICHARG =      0    charge: 1-file 2-atom 10-const
   ISPIN  =      2    spin polarized calculation?
   LNONCOLLINEAR =      F non collinear calculations
   LSORBIT =      F    spin-orbit coupling
   INIWAV =      1    electr: 0-lowe 1-rand  2-diag
   LASPH  =      F    aspherical Exc in radial PAW
 Electronic Relaxation 1
   ENCUT  =  370.0 eV  27.19 Ry    5.21 a.u.  16.68 16.68 16.68*2*pi/ulx,y,z
   ENINI  =  370.0     initial cutoff
   ENAUG  =  740.0 eV  augmentation charge cutoff
   NELM   =     60;   NELMIN=  2; NELMDL=  0     # of ELM steps 
   EDIFF  = 0.1E-04   stopping-criterion for ELM
   LREAL  =      F    real-space projection
   NLSPLINE    = F    spline interpolate recip. space projectors
   LCOMPAT=      F    compatible to vasp.4.4
   GGA_COMPAT  = T    GGA compatible to vasp.4.4-vasp.4.6
   LMAXPAW     = -100 max onsite density
   LMAXMIX     =    2 max onsite mixed and CHGCAR
   VOSKOWN=      0    Vosko Wilk Nusair interpolation
   ROPT   =    0.00000   0.00000
 Ionic relaxation
   EDIFFG = -.1E-01   stopping-criterion for IOM
   NSW    =      0    number of steps for IOM
   NBLOCK =      1;   KBLOCK =      1    inner block; outer block 
   IBRION =     -1    ionic relax: 0-MD 1-quasi-New 2-CG
   NFREE  =      1    steps in history (QN), initial steepest desc. (CG)
   ISIF   =      1    stress and relaxation
   IWAVPR =     10    prediction:  0-non 1-charg 2-wave 3-comb
   ISYM   =      0    0-nonsym 1-usesym 2-fastsym
   LCORR  =      T    Harris-Foulkes like correction to forces

   POTIM  = 0.2000    time-step for ionic-motion
   TEIN   =    0.0    initial temperature
   TEBEG  =    0.0;   TEEND  =   0.0 temperature during run
   SMASS  =  -3.00    Nose mass-parameter (am)
   estimated Nose-frequenzy (Omega)   =  0.10E-29 period in steps = 0.31E+47 mass=  -0.258E-26a.u.
   SCALEE = 1.0000    scale energy and forces
   NPACO  =    256;   APACO  = 16.0  distance and # of slots for P.C.
   PSTRESS=    0.0 pullay stress

  Mass of Ions in am
   POMASS =  12.01229.00
  Ionic Valenz
   ZVAL   =   4.00 13.00
  Atomic Wigner-Seitz radii
   RWIGS  =  -1.00 -1.00
  virtual crystal weights 
   VCA    =   1.00  1.00
   NELECT =     865.0000    total number of electrons
   NUPDOWN=      -1.0000    fix difference up-down

 DOS related values:
   EMIN   =  10.00;   EMAX   =-10.00  energy-range for DOS
   EFERMI =   0.00
   ISMEAR =     0;   SIGMA  =   0.01  broadening in eV -4-tet -1-fermi 0-gaus

 Electronic relaxation 2 (details)
   IALGO  =     58    algorithm
   LDIAG  =      T    sub-space diagonalisation (order eigenvalues)
   LSUBROT=      F    optimize rotation matrix (better conditioning)
   TURBO    =      0    0=normal 1=particle mesh
   IRESTART =      0    0=no restart 2=restart with 2 vectors
   NREBOOT  =      0    no. of reboots
   NMIN     =      0    reboot dimension
   EREF     =   0.00    reference energy to select bands
   IMIX   =      4    mixing-type and parameters
     AMIX     =   0.40;   BMIX     =  1.00
     AMIX_MAG =   1.60;   BMIX_MAG =  1.00
     AMIN     =   0.10
     WC   =   100.;   INIMIX=   1;  MIXPRE=   1;  MAXMIX= -45

 Intra band minimization:
   WEIMIN = 0.0000     energy-eigenvalue tresh-hold
   EBREAK =  0.39E-08  absolut break condition
   DEPER  =   0.30     relativ break condition  

   TIME   =   0.40     timestep for ELM

  volume/ion in A,a.u.               =       5.62        37.93
  Fermi-wavevector in a.u.,A,eV,Ry     =   1.466705  2.771670 29.269163  2.151223
  Thomas-Fermi vector in A             =   2.582410
 
 Write flags
   LWAVE        =      T    write WAVECAR
   LDOWNSAMPLE  =      F    k-point downsampling of WAVECAR
   LCHARG       =      T    write CHGCAR
   LVTOT        =      F    write LOCPOT, total local potential
   LVHAR        =      F    write LOCPOT, Hartree potential only
   LELF         =      F    write electronic localiz. function (ELF)
   LORBIT       =      0    0 simple, 1 ext, 2 COOP (PROOUT), +10 PAW based schemes


 Dipole corrections
   LMONO  =      F    monopole corrections only (constant potential shift)
   LDIPOL =      F    correct potential (dipole corrections)
   IDIPOL =      0    1-x, 2-y, 3-z, 4-all directions 
   EPSILON=  1.0000000 bulk dielectric constant

 Exchange correlation treatment:
   GGA     =    PE    GGA type
   LEXCH   =     8    internal setting for exchange type
   VOSKOWN=      0    Vosko Wilk Nusair interpolation
   EXXOEP  =     0    0=HF, 1=EXX-LHF (local Hartree Fock) 2=EXX OEP
   LHFCALC =     T    Hartree Fock is set to
   LSYMGRAD=     F    symmetrize gradient (conserves proper symmetry)
   PRECFOCK=normal    Normal, Fast or Accurate (Low or Medium for compatibility)
   LRHFCALC=     F    long range Hartree Fock
   LRSCOR  =     F    long range correlation only (use DFT for short range part)
   LTHOMAS =     F    Thomas Fermi screening in HF
   LMODELHF=     F    short range full HF, long range fraction AEXX
   LFOCKACE=     T    use Adeptively-Compressed-Exchange operator
   ENCUT4O =  -1.0   cutoff for four orbital integrals eV
   LMAXFOCK=     4    L truncation for augmentation on plane wave grid
   LMAXFOCKAE=  -1    L truncation for all-electron charge restoration on plane wave grid
   NMAXFOCKAE=   1    number of basis functions for all-electron charge restoration
   LFOCKAEDFT=     F  apply the AE augmentation even for DFT
   NKREDX  =     1    reduce k-point grid by
   NKREDY  =     1    reduce k-point grid by
   NKREDZ  =     1    reduce k-point grid by
   SHIFTRED=     F    shift reduced grid of Gamma
   HFKIDENT=     F    idential grid for each k-point
   ODDONLY =     F    use only odd q-grid points
   EVENONLY=     F    use only even q-grid points
   HFALPHA =   -1.0000 decay constant for conv. correction
   MCALPHA =    0.0000 extent of test-charge in conv. correction in multipole expansion
   AEXX    =    0.2500 exact exchange contribution
   HFSCREEN=    0.2000 screening length (either q_TF or 0.3 A-1)
   HFSCREENC=   0.2000 screening length for correlation (either q_TF or 0.3 A-1)
   HFRCUT  =    0.0000 spherical cutoff for potential kernel
   ALDAX   =    0.7500 LDA exchange part
   AGGAX   =    0.7500 GGA exchange part
   ALDAC   =    1.0000 LDA correlation
   AGGAC   =    1.0000 GGA correlation
   ENCUTFOCK=  -1.0 apply spherical cutoff to Coloumb kernel
   NBANDSGWLOW=     1    first orbital included in HF term
   NBLOCK_FOCK=    64    blocking factor in FOCK_ACC
 Linear response parameters
   LEPSILON=     F    determine dielectric tensor
   LRPA    =     F    only Hartree local field effects (RPA)
   LNABLA  =     F    use nabla operator in PAW spheres
   LVEL    =     F    velocity operator in full k-point grid
   LINTERFAST=   F  fast interpolation
   KINTER  =     0    interpolate to denser k-point grid
   CSHIFT  =0.1000    complex shift for real part using Kramers Kronig
   OMEGAMAX=  -1.0    maximum frequency
   DEG_THRESHOLD= 0.2000000E-02 threshold for treating states as degnerate
   RTIME   =   -0.100 relaxation time in fs
  (WPLASMAI=    0.000 imaginary part of plasma frequency in eV, 0.658/RTIME)
   DFIELD  = 0.0000000 0.0000000 0.0000000 field for delta impulse in time
 
 Orbital magnetization related:
   ORBITALMAG=     F  switch on orbital magnetization
   LCHIMAG   =     F  perturbation theory with respect to B field
   DQ        =  0.001000  dq finite difference perturbation B field
   LLRAUG    =     F  two centre corrections for induced B field



--------------------------------------------------------------------------------------------------------


 Static calculation
 charge density and potential will be updated during run
 spin polarized calculation
 Conjugate gradient for all bands (Freysoldt, et al. PRB 79, 241103 (2009))
 preconditioned conjugated gradient                                        
 perform sub-space diagonalisation
    before iterative eigenvector-optimisation
 modified Broyden-mixing scheme, WC =      100.0
 initial mixing is a Kerker type mixing with AMIX =  0.4000 and BMIX =      1.0000
 Hartree-type preconditioning will be used
 using additional bands          215
 reciprocal scheme for non local part
 use partial core corrections
 no Harris-corrections to forces 
 use gradient corrections 
 use of overlap-Matrix (Vanderbilt PP)
 Gauss-broadening in eV      SIGMA  =   0.01


--------------------------------------------------------------------------------------------------------


  energy-cutoff  :      370.00
  volume of cell :     1202.85
      direct lattice vectors                 reciprocal lattice vectors
    10.635000229  0.000000000  0.000000000     0.094029147  0.000000000  0.000000000
     0.000000000 10.635000229  0.000000000     0.000000000  0.094029147  0.000000000
     0.000000000  0.000000000 10.635000229     0.000000000  0.000000000  0.094029147

  length of vectors
    10.635000229 10.635000229 10.635000229     0.094029147  0.094029147  0.094029147


 
 old parameters found on file WAVECAR:
  energy-cutoff  :      370.00
  volume of cell :     1202.85
      direct lattice vectors                 reciprocal lattice vectors
    10.635000229  0.000000000  0.000000000     0.094029147  0.000000000  0.000000000
     0.000000000 10.635000229  0.000000000     0.000000000  0.094029147  0.000000000
     0.000000000  0.000000000 10.635000229     0.000000000  0.000000000  0.094029147

  length of vectors

 
 k-points in units of 2pi/SCALE and weight: 1 x 1 x 1 k-mesh (automatic generation o
   0.00000000  0.00000000  0.00000000       1.000
 
 k-points in reciprocal lattice and weights: 1 x 1 x 1 k-mesh (automatic generation o
   0.00000000  0.00000000  0.00000000       1.000
 
 position of ions in fractional coordinates (direct lattice) 
   0.00000074  0.00017068  0.99999926
   0.99961658  0.16683179  0.16651308
   0.16621996  0.00015170  0.16621937
   0.16651363  0.16683172  0.99961524
   0.24925902  0.08374399  0.24925948
   0.08311507  0.08361356  0.08311407
   0.08266795  0.25019354  0.24963495
   0.24963481  0.25019378  0.08266675
   0.33316073  0.00030610  0.99956269
   0.33272682  0.16627262  0.16539565
   0.49979297  0.00153414  0.16530981
   0.49999946  0.16688167  0.99999898
   0.58329335  0.08393295  0.24961825
   0.41651848  0.08384133  0.08233044
   0.41605005  0.24876985  0.24834266
   0.58327508  0.24981069  0.08297537
   0.66683868  0.00030687  0.00043499
   0.66667100  0.16701639  0.16668413
   0.83318041  0.00026589  0.16681959
   0.83348692  0.16683179  0.00038341
   0.91637037  0.08359862  0.24996596
   0.75003405  0.08359862  0.08362963
   0.74985335  0.25030720  0.25014667
   0.91652660  0.25030689  0.08347340
   0.00000068  0.33349778  0.99999932
   0.99922236  0.50021086  0.16634739
   0.16568872  0.33324969  0.16568843
   0.16634829  0.50021134  0.99921975
   0.24854470  0.41636260  0.24854522
   0.08286583  0.41693024  0.08286434
   0.08207111  0.58368552  0.24900834
   0.24900796  0.58368596  0.08206855
   0.33311158  0.33349796  0.99942712
   0.33136411  0.49999508  0.16463149
   0.49965940  0.33215217  0.16523432
   0.49999886  0.50027224  0.99999796
   0.58284035  0.41569514  0.24944000
   0.41630550  0.41667564  0.08263249
   0.41541722  0.58275797  0.24777646
   0.58321096  0.58354222  0.08365759
   0.66688770  0.33349730  0.00057036
   0.66606841  0.50031908  0.16744881
   0.83305696  0.33366881  0.16694304
   0.83365260  0.50021085  0.00077763
   0.91597953  0.41708695  0.25016080
   0.74983920  0.41708696  0.08402046
   0.74810324  0.58409123  0.25189676
   0.91642954  0.58369937  0.08357047
   0.00000137  0.66693683  0.99999864
   0.99952445  0.83359975  0.16653567
   0.16524515  0.66711346  0.16524425
   0.16653691  0.83359921  0.99952176
   0.24767871  0.75081222  0.24767963
   0.08269453  0.75043104  0.08269262
   0.08265235  0.91710401  0.24962417
   0.24962384  0.91710370  0.08265072
   0.33320035  0.66695035  0.99942853
   0.33293488  0.83418323  0.16557129
   0.49984882  0.66696575  0.16639054
   0.49999891  0.83375684  0.99999812
   0.58306998  0.75002499  0.25061646
   0.41646662  0.75032176  0.08296658
   0.41650762  0.91961862  0.24753290
   0.58329295  0.91719804  0.08320403
   0.66679813  0.66695040  0.00056741
   0.66635505  0.83400358  0.16660974
   0.83289785  0.66667210  0.16710215
   0.83346433  0.83359974  0.00047556
   0.91612941  0.75031017  0.25015993
   0.74984006  0.75031016  0.08387058
   0.74976093  0.91702561  0.25023908
   0.91649669  0.91699784  0.08350331
   0.99956502  0.00030688  0.33316131
   0.00000102  0.16688167  0.50000054
   0.16531083  0.00153341  0.49979469
   0.16539611  0.16627269  0.33272763
   0.24961866  0.08393207  0.58329450
   0.08233202  0.08384117  0.41651962
   0.08297734  0.24981142  0.58327582
   0.24834238  0.24877012  0.41605193
   0.33258224  0.00137356  0.33258404
   0.33285770  0.16669509  0.49974241
   0.49999866  0.00120021  0.50000134
   0.49974073  0.16669492  0.33285872
   0.58366452  0.08397719  0.58366626
   0.41633374  0.08397718  0.41633548
   0.41653691  0.24972200  0.58346310
   0.58346122  0.24972125  0.41653881
   0.66677353  0.00090159  0.33322649
   0.66714129  0.16669493  0.50025928
   0.83469019  0.00153414  0.50020703
   0.83331587  0.16701639  0.33332900
   0.91766957  0.08384133  0.58348151
   0.75038176  0.08393296  0.41670666
   0.75165733  0.24876987  0.58394996
   0.91702462  0.24981068  0.41672492
   0.99942962  0.33349728  0.33311230
   0.00000200  0.50027224  0.50000114
   0.16523596  0.33215341  0.49966149
   0.16463303  0.49999569  0.33136605
   0.24943996  0.41569623  0.58284320
   0.08263489  0.41667577  0.41630724
   0.08366178  0.58354279  0.58321300
   0.24777605  0.58275836  0.41542116
   0.33018574  0.32956121  0.33018689
   0.32453722  0.49054859  0.49224963
   0.49999894  0.33144133  0.50000110
   0.49224435  0.49054829  0.32453841
   0.58737549  0.41137985  0.58737824
   0.41262179  0.41137982  0.41262455
   0.66641505  0.33330292  0.33358499
   0.67546159  0.49054830  0.50775570
   0.83476566  0.33215217  0.50034062
   0.83255118  0.50031908  0.33393162
   0.91736748  0.41667564  0.58369449
   0.75055999  0.41569514  0.41715969
   0.75222349  0.58275794  0.58458279
   0.91634237  0.58354221  0.41678904
   0.99943256  0.66695040  0.33320186
   0.00000186  0.83375685  0.50000108
   0.16639375  0.66696617  0.49985248
   0.16557229  0.83418319  0.33293671
   0.25061719  0.75002418  0.58307339
   0.08297046  0.75032133  0.41646963
   0.08320706  0.91719687  0.58329470
   0.24753283  0.91961750  0.41651050
   0.33026651  0.66868743  0.33026891
   0.33076846  0.83754997  0.49918263
   0.49917867  0.83755185  0.33077046
   0.59373214  0.76547545  0.59373606
   0.40626397  0.76547546  0.40626788
   0.41664323  0.91856144  0.58335677
   0.58335413  0.91856326  0.41664588
   0.66731896  0.66873606  0.33268106
   0.66922952  0.83755182  0.50082134
   0.83360942  0.66696573  0.50015118
   0.83339025  0.83400358  0.33364495
   0.91703339  0.75032175  0.58353338
   0.74938354  0.75002498  0.41693003
   0.75246710  0.91961862  0.58349238
   0.91679596  0.91719806  0.41670704
   0.00043731  0.00030610  0.66683927
   0.00038476  0.16683171  0.83348636
   0.16682090  0.00026448  0.83317909
   0.16668544  0.16701652  0.66667138
   0.24996602  0.08359818  0.91636876
   0.08363123  0.08359819  0.75003398
   0.08347460  0.25030725  0.91652539
   0.25014735  0.25030868  0.74985265
   0.33322588  0.00089996  0.66677411
   0.33332861  0.16701653  0.83331456
   0.50020531  0.00153340  0.83468916
   0.50025759  0.16669510  0.66714230
   0.58348037  0.08384116  0.91766799
   0.41670549  0.08393207  0.75038133
   0.41672417  0.24981142  0.91702265
   0.58394807  0.24877013  0.75165761
   0.66741596  0.00137356  0.66741776
   0.66727237  0.16627270  0.83460388
   0.83378064  0.00015170  0.83378005
   0.83460435  0.16627262  0.66727317
   0.91688593  0.08361356  0.91688493
   0.75074053  0.08374397  0.75074097
   0.75036505  0.25019354  0.91733203
   0.91733324  0.25019378  0.75036518
   0.00057287  0.33349796  0.66688841
   0.00078025  0.50021134  0.83365171
   0.16694427  0.33367000  0.83305572
   0.16745226  0.50032140  0.66606920
   0.25016157  0.41708871  0.91597651
   0.08402349  0.41708871  0.74983843
   0.08357315  0.58370000  0.91642686
   0.25189869  0.58409288  0.74810132
   0.33358449  0.33330524  0.66641552
   0.33393082  0.50032140  0.83254773
   0.50033852  0.33215342  0.83476401
   0.50775042  0.49054861  0.67546280
   0.58369275  0.41667578  0.91736507
   0.41715684  0.41569624  0.75056005
   0.41678700  0.58354278  0.91633818
   0.58457883  0.58275833  0.75222392
   0.66981309  0.32956124  0.66981425
   0.66863393  0.49999569  0.83536694
   0.83431156  0.33324969  0.83431126
   0.83536847  0.49999508  0.66863589
   0.91713565  0.41693024  0.91713416
   0.75145475  0.41636260  0.75145528
   0.75099164  0.58368552  0.91792887
   0.91793143  0.58368596  0.75099203
   0.00057145  0.66695036  0.66679965
   0.00047825  0.83359921  0.83346309
   0.16710517  0.66667169  0.83289483
   0.16661228  0.83400150  0.66635525
   0.25016042  0.75030955  0.91612596
   0.08387402  0.75030955  0.74983959
   0.08350490  0.91699735  0.91649511
   0.25023985  0.91702337  0.74976015
   0.33268439  0.66873298  0.66731565
   0.33364474  0.83400150  0.83338774
   0.50014752  0.66696615  0.83360623
   0.50081739  0.83754994  0.66923152
   0.58353036  0.75032131  0.91702952
   0.41692662  0.75002417  0.74938282
   0.41670529  0.91719688  0.91679294
   0.58348950  0.91961748  0.75246716
   0.66973107  0.66868740  0.66973348
   0.66706329  0.83418318  0.83442769
   0.83475574  0.66711346  0.83475484
   0.83442869  0.83418323  0.66706512
   0.91730738  0.75043104  0.91730547
   0.75232034  0.75081221  0.75232126
   0.75037583  0.91710401  0.91734766
   0.91734928  0.91710370  0.75037616
   0.49998729  0.61281994  0.50001298
 
 position of ions in cartesian coordinates  (Angst):
   0.00000791  0.00181513 10.63499235
  10.63092261  1.77425612  1.77086666
   1.76774927  0.00161337  1.76774301
   1.77087251  1.77425534 10.63090827
   2.65086978  0.89061731  2.65087459
   0.88392875  0.88923023  0.88391811
   0.87917370  2.66080834  2.65486777
   2.65486628  2.66081091  0.87916095
   3.54316442  0.00325536 10.63034945
   3.53854983  1.76830939  1.75898273
   5.31529836  0.01631554  1.75806982
   5.31749440  1.77478656 10.63498936
   6.20332488  0.89262698  2.65469013
   4.42967408  0.89165254  0.87558424
   4.42469234  2.64566745  2.64112423
   6.20313063  2.65673672  0.88244307
   7.09182955  0.00326356  0.00462608
   7.09004621  1.77621934  1.77268577
   8.86087385  0.00282770  1.77412638
   8.86413359  1.77425614  0.00407759
   9.74559912  0.88907130  2.65838800
   7.97661232  0.88907135  0.88940111
   7.97469050  2.66201714  2.66030992
   9.74726062  2.66201382  0.88773959
   0.00000725  3.54674898 10.63499299
  10.62673007  5.31974258  1.76910457
   1.76209963  3.54411058  1.76209651
   1.76911412  5.31974776 10.62670231
   2.64327291  4.42801633  2.64327846
   0.88127815  4.43405318  0.88126233
   0.87282629  6.20749568  2.64820379
   2.64819971  6.20750027  0.87279906
   3.54264177  3.54675091 10.62890770
   3.52405735  5.31744783  1.75085589
   5.31387779  3.53243842  1.75726705
   5.31748797  5.32039534 10.63497857
   6.19850726  4.42091786  2.65279446
   4.42740910  4.43134555  0.87879655
   4.41796219  6.19763118  2.63510275
   6.20244870  6.20597160  0.88969848
   7.09235086  3.54674382  0.00606581
   7.08363770  5.32089356  1.78081812
   8.85956100  3.54856790  1.77543926
   8.86589563  5.31974256  0.00827009
   9.74144249  4.43571982  2.66046021
   7.97454007  4.43571993  0.89355763
   7.95607814  6.21181039  2.67892214
   9.74622834  6.20764295  0.88877196
   0.00001456  7.09287332 10.63498578
  10.62994273  8.86533348  1.77110693
   1.75738223  7.09475177  1.75737261
   1.77112010  8.86532780 10.62991415
   2.63406317  7.98488810  2.63407291
   0.87945637  7.98083423  0.87943606
   0.87900771  9.75340141  2.65475309
   2.65474959  9.75339806  0.87899039
   3.54358576  7.09301718 10.62892261
   3.54076251  8.87153887  1.76085072
   5.31589235  7.09318091  1.76956343
   5.31748849  8.86700424 10.63498026
   6.20094939  7.97651591  2.66530610
   4.42912257  7.97967206  0.88234959
   4.42955868  9.78014424  2.63251241
   6.20332069  9.75440142  0.88487493
   7.09139830  7.09301762  0.00603443
   7.08668607  8.86962825  1.77189466
   8.85786881  7.09005791  1.77713141
   8.86389330  8.86533342  0.00505753
   9.74303644  7.97954881  2.66045094
   7.97454920  7.97954872  0.89196368
   7.97370762  9.75256757  2.66129267
   9.74694251  9.75227222  0.88805776
  10.63037420  0.00326362  3.54317065
   0.00001085  1.77478659  5.31750584
   1.75808075  0.01630779  5.31531663
   1.75898766  1.76831011  3.53855846
   2.65469453  0.89261755  6.20333711
   0.87560102  0.89165085  4.42968627
   0.88246401  2.65674447  6.20313851
   2.64112123  2.64567023  4.42471240
   3.53701215  0.01460784  3.53703135
   3.53994175  1.77280230  5.31476064
   5.31748587  0.01276427  5.31751442
   5.31474278  1.77280052  3.53995254
   6.20727230  0.89309741  6.20729084
   4.42770940  0.89309735  4.42772795
   4.42987013  2.65579354  6.20513020
   6.20511020  2.65578555  4.42989030
   7.09113661  0.00958845  3.54386375
   7.09504776  1.77280063  5.32025756
   8.87693041  0.01631553  5.31970188
   8.86231450  1.77621930  3.54495403
   9.75941604  0.89165257  6.20532602
   7.98031015  0.89262700  4.43167542
   7.99387588  2.64566765  6.21030794
   9.75255708  2.65673666  4.43186958
  10.62893423  3.54674369  3.54264937
   0.00002125  5.32039534  5.31751225
   1.75728447  3.53245157  5.31390005
   1.75087227  5.31745423  3.52407807
   2.65279398  4.42092947  6.19853757
   0.87882206  4.43134689  4.42742759
   0.88974307  6.20597770  6.20247037
   2.63509836  6.19763524  4.41800414
   3.51152544  3.50488354  3.51153768
   3.45145342  5.21698432  5.23507488
   5.31748887  3.52487865  5.31751177
   5.23501873  5.21698113  3.45146608
   6.24673848  4.37502479  6.24676775
   4.38823284  4.37502452  4.38826215
   7.08732417  3.54467660  3.54767643
   7.18353412  5.21698125  5.39998204
   8.87773294  3.53243843  5.32112257
   8.85418195  5.32089358  3.55136287
   9.75620334  4.43134555  6.20759104
   7.98220569  4.42091792  4.43649341
   7.99989703  6.19763087  6.21703807
   9.74530134  6.20597153  4.43255155
  10.62896554  7.09301768  3.54360186
   0.00001983  8.86700427  5.31751165
   1.76959754  7.09318540  5.31593127
   1.76086133  8.87153843  3.54078201
   2.66531386  7.97650729  6.20098563
   0.88239088  7.97966748  4.42915462
   0.88490708  9.75438896  6.20333932
   2.63251167  9.78013231  4.42958924
   3.51238441  7.11149096  3.51240991
   3.51772270  8.90734417  5.30880744
   5.30876530  8.90736408  3.51774396
   6.31434146  8.14083159  6.31438316
   4.32061739  8.14083168  4.32065899
   4.43100081  9.76890111  6.20399941
   6.20397126  9.76892046  4.43102903
   7.09693728  7.11200820  3.53806319
   7.11725614  8.90736379  5.32623508
   8.86543639  7.09318072  5.31910795
   8.86310547  8.86962832  3.54831411
   9.75265036  7.97967199  6.20587764
   7.96969415  7.97651580  4.43405101
   8.00248774  9.78014418  6.20544160
   9.75012528  9.75440153  4.43167951
   0.00465079  0.00325533  7.09183576
   0.00409196  1.77425531  8.86412766
   1.77414032  0.00281270  8.86085983
   1.77269968  1.77622077  7.09005030
   2.65838865  0.88906666  9.74558200
   0.88941817  0.88906674  7.97661150
   0.88775241  2.66201770  9.74724774
   2.66031712  2.66203291  7.97468313
   3.54385734  0.00957109  7.09114285
   3.54494984  1.77622084  8.86230049
   5.31968359  0.01630769  8.87691940
   5.32023963  1.77280239  7.09505847
   6.20531387  0.89165080  9.75939924
   4.43166302  0.89261759  7.98030559
   4.43186165  2.65674453  9.75253610
   6.21028788  2.64567043  7.99387881
   7.09796887  0.01460777  7.09798806
   7.09644180  1.76831016  8.87601247
   8.86725725  0.00161332  8.86725098
   8.87601744  1.76830938  7.09645035
   9.75108209  0.88923023  9.75107145
   7.98412568  0.89061719  7.98413040
   7.98013247  2.66080839  9.75582638
   9.75583925  2.66081088  7.98013388
   0.00609242  3.54675087  7.09235842
   0.00829797  5.31974775  8.86588618
   1.77545238  3.54858053  8.85954778
   1.78085479  5.32091824  7.08364609
   2.66046838  4.43573850  9.74141037
   0.89358980  4.43573857  7.97453185
   0.88880046  6.20764959  9.74619984
   2.67894267  6.21182790  7.95605774
   3.54767118  3.54470130  7.08732923
   3.55135433  5.32091824  8.85414530
   5.32110031  3.53245172  8.87771546
   5.39992587  5.21698455  7.18354702
   6.20757258  4.43134701  9.75617776
   4.43646312  4.42092960  7.98220627
   4.43252984  6.20597763  9.74525676
   6.21699603  6.19763497  7.99990160
   7.12346236  3.50488382  7.12347466
   7.11092195  5.31745429  8.88412758
   8.87290361  3.54411053  8.87290049
   8.88414390  5.31744780  7.11094281
   9.75373789  4.43405317  9.75372201
   7.99172140  4.42801640  7.99172708
   7.98679627  6.20749565  9.76217372
   9.76220094  6.20750030  7.98680043
   0.00607738  7.09301720  7.09141440
   0.00508614  8.86532779  8.86388012
   1.77716357  7.09005360  8.85783676
   1.77192159  8.86960614  7.08668825
   2.66045611  7.97954225  9.74299983
   0.89200027  7.97954228  7.97454420
   0.88807465  9.75226698  9.74692569
   2.66130085  9.75254373  7.97369933
   3.53809857  7.11197543  7.09690206
   3.54831192  8.86960613  8.86307875
   5.31906901  7.09318516  8.86540240
   5.32619308  8.90734381  7.11727736
   6.20584554  7.97966732  9.75260911
   4.43401468  7.97650721  7.96968646
   4.43166086  9.75438900  9.75009315
   6.20541100  9.78013214  8.00248846
   7.12259005  7.11149061  7.12261576
   7.09421820  8.87153826  8.87413870
   8.87762744  7.09475177  8.87761790
   8.87414933  8.87153880  7.09423766
   9.75556415  7.98083429  9.75554385
   8.00092694  7.98488800  8.00093677
   7.98024713  9.75340132  9.75599254
   9.75600983  9.75339810  7.98025068
   5.31736489  6.51734025  5.31763817
 


--------------------------------------------------------------------------------------------------------


 use parallel FFT for orbitals z direction half grid
 k-point   1 :   0.0000 0.0000 0.0000  plane waves:    9775

 maximum and minimum number of plane-waves per node :      1225     1219

 maximum number of plane-waves:      9775
 maximum index in each direction: 
   IXMAX=   16   IYMAX=   16   IZMAX=   16
   IXMIN=  -16   IYMIN=  -16   IZMIN=    0


 parallel 3D FFT for wavefunctions:
    minimum data exchange during FFTs selected (reduces bandwidth)
 parallel 3D FFT for charge:
    minimum data exchange during FFTs selected (reduces bandwidth)


 FFT grid for exact exchange (Hartree Fock) 
  NGX = 54; NGY = 54; NGZ = 54

 use parallel FFT for orbitals z direction half grid
 
 Radii for the augmentation spheres in the non-local exchange
 for species   1 augmentation radius   0.874 (default was   0.699)
       energy cutoff for augmentation   1480.0
 for species   2 augmentation radius   1.496 (default was   1.197)
       energy cutoff for augmentation   1480.0

 real space projection operators:
  total allocation   :       5806.34 KBytes
  max/ min on nodes  :        772.72        660.77

 Maximum index for augmentation-charges in exchange          245
  SETUP_FOCK is finished

 total amount of memory used by VASP MPI-rank0    83639. kBytes
=======================================================================

   base      :      30000. kBytes
   nonl-proj :       4817. kBytes
   fftplans  :       5586. kBytes
   grid      :      13063. kBytes
   one-center:       1327. kBytes
   HF        :         73. kBytes
   nonlr-proj:        906. kBytes
   wavefun   :      27867. kBytes
 
     INWAV:  cpu time    1.7089: real time    1.7930
 Broyden mixing: mesh for mixing (old mesh)
   NGX = 33   NGY = 33   NGZ = 33
  (NGX  =140   NGY  =140   NGZ  =140)
  gives a total of  35937 points

 charge density for first step will be calculated from the start-wavefunctions


--------------------------------------------------------------------------------------------------------


 Maximum index for augmentation-charges          767 (set IRDMAX)


--------------------------------------------------------------------------------------------------------


 initial charge from wavefunction
 First call to EWALD:  gamma=   0.167
 Maximum number of real-space cells 3x 3x 3
 Maximum number of reciprocal cells 3x 3x 3

    FEWALD:  cpu time    0.0111: real time    0.0111


--------------------------------------- Iteration      1(   1)  ---------------------------------------


    POTLOK:  cpu time    0.3921: real time    0.3922
    SETDIJ:  cpu time    0.4675: real time    0.4675
    TRIAL :  cpu time  217.9804: real time  218.3937
    CORREC:  cpu time  214.3977: real time  214.7528
    CHARGE:  cpu time    0.1714: real time    0.1714
    --------------------------------------------
      LOOP:  cpu time  433.4176: real time  434.2246

 eigenvalue-minimisations  :     0
 total energy-change (2. order) :-0.2244336E+04  (-0.2526145E+01)
 number of electron     865.0000004 magnetization      -1.0000002
 augmentation part       17.8863728 magnetization      -0.1888099

 Free energy of the ion-electron system (eV)
  ---------------------------------------------------
  alpha Z        PSCENC =      3277.45300731
  Ewald energy   TEWEN  =    -38586.26399930
  -Hartree energ DENC   =     -2875.48171607
  -exchange      EXHF   =      1996.19386006
  -V(xc)+E(xc)   XCENC  =      2341.88060286
  PAW double counting   =     91589.08559426   -91669.26863436
  entropy T*S    EENTRO =        -0.00000000
  eigenvalues    EBANDS =      -454.55198404
  atomic energy  EATOM  =     32136.61758730
  ---------------------------------------------------
  free energy    TOTEN  =     -2244.33568196 eV

  energy without entropy =    -2244.33568196  energy(sigma->0) =    -2244.33568196
  exchange ACFDT corr.  =         0.00000000  see jH, gK, PRB 81, 115126


--------------------------------------------------------------------------------------------------------




--------------------------------------- Iteration      1(   2)  ---------------------------------------


    POTLOK:  cpu time    0.3874: real time    0.3874
    SETDIJ:  cpu time    0.4603: real time    0.4603
    TRIAL :  cpu time  215.7871: real time  216.1286
    CORREC:  cpu time  213.3659: real time  213.7460
    CHARGE:  cpu time    0.1683: real time    0.1683
    --------------------------------------------
      LOOP:  cpu time  430.1705: real time  430.8921

 eigenvalue-minimisations  :     0
 total energy-change (2. order) :-0.2532939E+01  (-0.3416429E+00)
 number of electron     865.0000004 magnetization      -1.0000002
 augmentation part       17.8825011 magnetization      -0.1868377

 Free energy of the ion-electron system (eV)
  ---------------------------------------------------
  alpha Z        PSCENC =      3277.45300731
  Ewald energy   TEWEN  =    -38586.26399930
  -Hartree energ DENC   =     -2819.40930475
  -exchange      EXHF   =      1995.64641346
  -V(xc)+E(xc)   XCENC  =      2338.45330266
  PAW double counting   =     97637.53488566   -97715.35095094
  entropy T*S    EENTRO =        -0.00000000
  eigenvalues    EBANDS =      -511.54956269
  atomic energy  EATOM  =     32136.61758730
[...]
      1.77087      1.77426     10.63091         0.002143      0.006802      0.004598
      2.65087      0.89062      2.65087        -0.003214     -0.002305     -0.003248
      0.88393      0.88923      0.88392        -0.002640     -0.003324     -0.002546
      0.87917      2.66081      2.65487        -0.004871     -0.005468     -0.008385
      2.65487      2.66081      0.87916        -0.008345     -0.005447     -0.004808
      3.54316      0.00326     10.63035         0.008443      0.007359      0.001569
      3.53855      1.76831      1.75898         0.009488      0.009399      0.005098
      5.31530      0.01632      1.75807        -0.012256      0.000339      0.000371
      5.31749      1.77479     10.63499         0.000016      0.008839      0.000105
      6.20332      0.89263      2.65469         0.001700     -0.008690     -0.000313
      4.42967      0.89165      0.87558        -0.005710     -0.002890     -0.000073
      4.42469      2.64567      2.64112        -0.013130     -0.005991     -0.000987
      6.20313      2.65674      0.88244         0.003399     -0.003456     -0.000963
      7.09183      0.00326      0.00463        -0.008337      0.007201     -0.001200
      7.09005      1.77622      1.77269        -0.004081      0.004388      0.001134
      8.86087      0.00283      1.77413        -0.002595      0.006848      0.002601
      8.86413      1.77426      0.00408        -0.002148      0.006801     -0.004494
      9.74560      0.88907      2.65839        -0.001321     -0.002079     -0.002016
      7.97661      0.88907      0.88940         0.002008     -0.002079      0.001330
      7.97469      2.66202      2.66031         0.002819     -0.000335     -0.002831
      9.74726      2.66201      0.88774        -0.000771     -0.006290      0.000772
      0.00001      3.54675     10.63499        -0.000078      0.002390      0.000075
     10.62673      5.31974      1.76910         0.002231      0.009118     -0.000449
      1.76210      3.54411      1.76210         0.005236      0.011333      0.005181
      1.76911      5.31975     10.62670        -0.000512      0.009039      0.002538
      2.64327      4.42802      2.64328        -0.005847     -0.013425     -0.005957
      0.88128      4.43405      0.88126        -0.003511     -0.009986     -0.003476
      0.87283      6.20750      2.64820        -0.005106     -0.009485     -0.003275
      2.64820      6.20750      0.87280        -0.003165     -0.009628     -0.004795
      3.54264      3.54675     10.62891         0.004869      0.003068      0.004762
      3.52406      5.31745      1.75086         0.015148      0.012841      0.008828
      5.31388      3.53244      1.75727        -0.004092      0.026692      0.026100
      5.31749      5.32040     10.63498         0.000082      0.003126      0.000269
      6.19851      4.42092      2.65279         0.035392     -0.038803     -0.039235
      4.42741      4.43135      0.87880        -0.008338     -0.007061     -0.006879
      4.41796      6.19763      2.63510        -0.071634     -0.011820     -0.064288
      6.20245      6.20597      0.88970        -0.000240     -0.004018     -0.005544
      7.09235      3.54674      0.00607        -0.004863      0.003187     -0.004536
      7.08364      5.32089      1.78082        -0.001699      0.007895      0.003553
      8.85956      3.54857      1.77544         0.001033      0.004320     -0.001042
      8.86590      5.31974      0.00827         0.000462      0.009123     -0.002229
      9.74144      4.43572      2.66046        -0.002093     -0.008349     -0.002737
      7.97454      4.43572      0.89356         0.002743     -0.008357      0.002098
      7.95608      6.21181      2.67892         0.046004     -0.021893     -0.046008
      9.74623      6.20764      0.88877         0.001572     -0.007529     -0.001580
      0.00001      7.09287     10.63499        -0.000153      0.005717      0.000149
     10.62994      8.86533      1.77111        -0.001767      0.002994     -0.001148
      1.75738      7.09475      1.75737        -0.002649      0.008411     -0.002588
      1.77112      8.86533     10.62991        -0.001249      0.003010     -0.001426
      2.63406      7.98489      2.63407        -0.001661     -0.028862     -0.001856
      0.87946      7.98083      0.87944        -0.000108     -0.007348      0.000057
      0.87901      9.75340      2.65475        -0.003434     -0.001505      0.000022
      2.65475      9.75340      0.87899         0.000006     -0.001417     -0.003332
      3.54359      7.09302     10.62892        -0.002666      0.002069     -0.002351
      3.54076      8.87154      1.76085        -0.001794      0.006070      0.002781
      5.31589      7.09318      1.76956         0.008922     -0.005498      0.003483
      5.31749      8.86700     10.63498         0.000117     -0.000634      0.000284
      6.20095      7.97652      2.66531         0.001248      0.061622     -0.052149
      4.42912      7.97967      0.88235        -0.004886     -0.002067     -0.000720
      4.42956      9.78014      2.63251         0.024257     -0.006620      0.003793
      6.20332      9.75440      0.88487         0.003965      0.000374     -0.000010
      7.09140      7.09302      0.00603         0.002860      0.002080      0.002931
      7.08669      8.86963      1.77189        -0.015919     -0.004458      0.007591
      8.85787      7.09006      1.77713        -0.013486      0.001247      0.013482
      8.86389      8.86533      0.00506         0.001146      0.002994      0.001762
      9.74304      7.97955      2.66045         0.000907     -0.000332     -0.000263
      7.97455      7.97955      0.89196         0.000260     -0.000335     -0.000903
      7.97371      9.75257      2.66129         0.006337     -0.002029     -0.006345
      9.74694      9.75227      0.88806         0.002355     -0.004784     -0.002352
     10.63037      0.00326      3.54317         0.001203      0.007199      0.008337
      0.00001      1.77479      5.31751        -0.000101      0.008830     -0.000026
      1.75808      0.01631      5.31532         0.000247      0.000504     -0.012406
      1.75899      1.76831      3.53856         0.005126      0.009438      0.009461
      2.65469      0.89262      6.20334        -0.000412     -0.008500      0.001634
      0.87560      0.89165      4.42969        -0.000130     -0.002867     -0.005710
      0.88246      2.65674      6.20314        -0.001235     -0.003709      0.003408
      2.64112      2.64567      4.42471        -0.000958     -0.006061     -0.013376
      3.53701      0.01461      3.53703         0.001304     -0.002654      0.001061
      3.53994      1.77280      5.31476        -0.000206      0.002409     -0.000777
      5.31749      0.01276      5.31751         0.000115      0.010551     -0.000113
      5.31474      1.77280      3.53995        -0.000675      0.002402     -0.000333
      6.20727      0.89310      6.20729        -0.000744     -0.007475     -0.000868
      4.42771      0.89310      4.42773         0.000874     -0.007476      0.000742
      4.42987      2.65579      6.20513        -0.002300     -0.017428      0.002312
      6.20511      2.65579      4.42989         0.002598     -0.017246     -0.002601
      7.09114      0.00959      3.54386        -0.004693      0.000874      0.004692
      7.09505      1.77280      5.32026         0.000331      0.002400      0.000678
      8.87693      0.01632      5.31970        -0.000371      0.000335      0.012256
      8.86231      1.77622      3.54495        -0.001131      0.004381      0.004083
      9.75942      0.89165      6.20533         0.000061     -0.002894      0.005702
      7.98031      0.89263      4.43168         0.000314     -0.008695     -0.001704
      7.99388      2.64567      6.21031         0.000974     -0.006002      0.013132
      9.75256      2.65674      4.43187         0.000963     -0.003452     -0.003398
     10.62893      3.54674      3.54265         0.004544      0.003189      0.004864
      0.00002      5.32040      5.31751        -0.000248      0.003127     -0.000092
      1.75728      3.53245      5.31390         0.025864      0.026351     -0.004264
      1.75087      5.31745      3.52408         0.008737      0.012654      0.014924
      2.65279      4.42093      6.19854        -0.039414     -0.039279      0.034965
      0.87882      4.43135      4.42743        -0.007162     -0.007140     -0.008580
      0.88974      6.20598      6.20247        -0.006264     -0.004093     -0.000457
      2.63510      6.19764      4.41800        -0.064226     -0.012060     -0.072457
      3.51153      3.50488      3.51154         0.007440      0.022189      0.007310
      3.45145      5.21698      5.23507         0.062699     -0.009814     -0.144227
      5.31749      3.52488      5.31751         0.000150      0.008681     -0.000144
      5.23502      5.21698      3.45147        -0.143294     -0.008990      0.062866
      6.24674      4.37502      6.24677         0.047361     -0.078584      0.046879
      4.38823      4.37502      4.38826        -0.046891     -0.078572     -0.047375
      7.08732      3.54468      3.54768        -0.011684      0.006900      0.011673
      7.18353      5.21698      5.39998        -0.062843     -0.009007      0.143265
      8.87773      3.53244      5.32112        -0.026085      0.026687      0.004086
      8.85418      5.32089      3.55136        -0.003545      0.007887      0.001692
      9.75620      4.43135      6.20759         0.006881     -0.007067      0.008338
      7.98221      4.42092      4.43649         0.039239     -0.038802     -0.035397
      7.99990      6.19763      6.21704         0.064290     -0.011814      0.071636
      9.74530      6.20597      4.43255         0.005553     -0.004010      0.000235
     10.62897      7.09302      3.54360        -0.002926      0.002082     -0.002870
      0.00002      8.86700      5.31751        -0.000292     -0.000629     -0.000119
      1.76960      7.09319      5.31593         0.002758     -0.005536      0.008390
      1.76086      8.87154      3.54078         0.002663      0.006120     -0.002080
      2.66531      7.97651      6.20099        -0.052434      0.061975      0.000878
      0.88239      7.97967      4.42915        -0.001401     -0.001927     -0.005393
      0.88491      9.75439      6.20334        -0.000453      0.000725      0.003845
      2.63251      9.78013      4.42959         0.003803     -0.006291      0.023831
      3.51238      7.11149      3.51241        -0.042850      0.038518     -0.043323
      3.51772      8.90734      5.30881        -0.063523      0.055352     -0.037326
      5.30877      8.90736      3.51774        -0.036733      0.054454     -0.063370
      6.31434      8.14083      6.31438        -0.132157     -0.149399     -0.133414
      4.32062      8.14083      4.32066         0.133418     -0.149456      0.132184
      4.43100      9.76890      6.20400        -0.001745     -0.011864      0.001741
      6.20397      9.76892      4.43103         0.002284     -0.012233     -0.002291
      7.09694      7.11201      3.53806        -0.005660      0.054020      0.005660
      7.11726      8.90736      5.32624         0.063388      0.054478      0.036729
      8.86544      7.09318      5.31911        -0.003473     -0.005488     -0.008922
      8.86311      8.86963      3.54831        -0.007591     -0.004457      0.015918
      9.75265      7.97967      6.20588         0.000709     -0.002071      0.004881
      7.96969      7.97652      4.43405         0.052151      0.061633     -0.001261
      8.00249      9.78014      6.20544        -0.003793     -0.006617     -0.024263
      9.75013      9.75440      4.43168         0.000010      0.000381     -0.003968
      0.00465      0.00326      7.09184        -0.001569      0.007358     -0.008445
      0.00409      1.77426      8.86413        -0.004591      0.006803     -0.002130
      1.77414      0.00281      8.86086         0.002495      0.007115     -0.002484
      1.77270      1.77622      7.09005         0.001010      0.004401     -0.004110
      2.65839      0.88907      9.74558        -0.002003     -0.001993     -0.001218
      0.88942      0.88907      7.97661         0.001226     -0.001993      0.002005
      0.88775      2.66202      9.74725         0.000731     -0.006274     -0.000729
      2.66032      2.66203      7.97468        -0.002979     -0.000802      0.002981
      3.54386      0.00957      7.09114         0.004643      0.001219     -0.004640
      3.54495      1.77622      8.86230         0.004117      0.004396     -0.001004
      5.31968      0.01631      8.87692         0.012400      0.000508     -0.000249
      5.32024      1.77280      7.09506         0.000773      0.002405      0.000206
      6.20531      0.89165      9.75940         0.005709     -0.002865      0.000125
      4.43166      0.89262      7.98031        -0.001625     -0.008499      0.000413
      4.43186      2.65674      9.75254        -0.003404     -0.003707      0.001237
      6.21029      2.64567      7.99388         0.013375     -0.006064      0.000960
      7.09797      0.01461      7.09799        -0.001061     -0.002653     -0.001302
      7.09644      1.76831      8.87601        -0.009459      0.009436     -0.005131
      8.86726      0.00161      8.86725        -0.002380      0.007616     -0.002361
      8.87602      1.76831      7.09645        -0.005103      0.009395     -0.009487
      9.75108      0.88923      9.75107         0.002548     -0.003340      0.002643
      7.98413      0.89062      7.98413         0.003242     -0.002298      0.003211
      7.98013      2.66081      9.75583         0.008383     -0.005477      0.004878
      9.75584      2.66081      7.98013         0.004802     -0.005444      0.008347
      0.00609      3.54675      7.09236        -0.004755      0.003071     -0.004869
      0.00830      5.31975      8.86589        -0.002542      0.009044      0.000508
      1.77545      3.54858      8.85955        -0.001140      0.004175      0.001140
      1.78085      5.32092      7.08365         0.002816      0.007267     -0.001618
      2.66047      4.43574      9.74141        -0.002947     -0.008647     -0.001583
      0.89359      4.43574      7.97453         0.001580     -0.008650      0.002950
      0.88880      6.20765      9.74620        -0.001871     -0.007624      0.001878
      2.67894      6.21183      7.95606        -0.046366     -0.022032      0.046364
      3.54767      3.54470      7.08733         0.011485      0.006084     -0.011488
      3.55135      5.32092      8.85415         0.001619      0.007263     -0.002806
      5.32110      3.53245      8.87772         0.004253      0.026342     -0.025850
      5.39993      5.21698      7.18355         0.144206     -0.009861     -0.062693
      6.20757      4.43135      9.75618         0.008580     -0.007143      0.007179
      4.43646      4.42093      7.98221        -0.034973     -0.039277      0.039410
      4.43253      6.20598      9.74526         0.000458     -0.004082      0.006281
      6.21700      6.19763      7.99990         0.072456     -0.012031      0.064243
      7.12346      3.50488      7.12347        -0.007307      0.022169     -0.007439
      7.11092      5.31745      8.88413        -0.014921      0.012656     -0.008719
      8.87290      3.54411      8.87290        -0.005184      0.011337     -0.005236
      8.88414      5.31745      7.11094        -0.008823      0.012834     -0.015145
      9.75374      4.43405      9.75372         0.003478     -0.009992      0.003517
      7.99172      4.42802      7.99173         0.005970     -0.013433      0.005860
      7.98680      6.20750      9.76217         0.003265     -0.009488      0.005110
      9.76220      6.20750      7.98680         0.004796     -0.009628      0.003172
      0.00608      7.09302      7.09141         0.002353      0.002063      0.002669
      0.00509      8.86533      8.86388         0.001418      0.003023      0.001256
      1.77716      7.09005      8.85784         0.013035      0.001251     -0.013037
      1.77192      8.86961      7.08669         0.007162     -0.003949     -0.015915
      2.66046      7.97954      9.74300        -0.000470     -0.000176      0.001417
      0.89200      7.97954      7.97454        -0.001409     -0.000186      0.000461
      0.88807      9.75227      9.74693        -0.002539     -0.004687      0.002534
      2.66130      9.75254      7.97370        -0.006565     -0.001528      0.006567
      3.53810      7.11198      7.09690         0.004953      0.054613     -0.004959
      3.54831      8.86961      8.86308         0.015928     -0.003948     -0.007162
      5.31907      7.09319      8.86540        -0.008396     -0.005529     -0.002745
      5.32619      8.90734      7.11728         0.037304      0.055378      0.063558
      6.20585      7.97967      9.75261         0.005387     -0.001920      0.001401
      4.43401      7.97651      7.96969        -0.000891      0.061995      0.052437
      4.43166      9.75439      9.75009        -0.003851      0.000720      0.000440
      6.20541      9.78013      8.00249        -0.023833     -0.006296     -0.003797
      7.12259      7.11149      7.12262         0.043331      0.038509      0.042874
      7.09422      8.87154      8.87414         0.002071      0.006124     -0.002662
      8.87763      7.09475      8.87762         0.002583      0.008416      0.002643
      8.87415      8.87154      7.09424        -0.002784      0.006075      0.001801
      9.75556      7.98083      9.75554        -0.000063     -0.007353      0.000111
      8.00093      7.98489      8.00094         0.001858     -0.028858      0.001675
      7.98025      9.75340      9.75599        -0.000031     -0.001511      0.003430
      9.75601      9.75340      7.98025         0.003330     -0.001424     -0.000007
      5.31736      6.51734      5.31764         0.002673      0.045376     -0.002802
 -----------------------------------------------------------------------------------
    total drift:                               -0.000057      0.000701     -0.000003


--------------------------------------------------------------------------------------------------------



  FREE ENERGIE OF THE ION-ELECTRON SYSTEM (eV)
  ---------------------------------------------------
  free  energy   TOTEN  =     -2247.38104111 eV

  energy  without entropy=    -2247.38104111  energy(sigma->0) =    -2247.38104111
 


--------------------------------------------------------------------------------------------------------


    POTLOK:  cpu time    0.8483: real time    0.8506


--------------------------------------------------------------------------------------------------------


 writing wavefunctions
     LOOP+:  cpu time 6777.2455: real time 6790.0862
    4ORBIT:  cpu time    0.0000: real time    0.0000

 total amount of memory used by VASP MPI-rank0   128196. kBytes
=======================================================================

   base      :      30000. kBytes
   nonl-proj :       4817. kBytes
   fftplans  :       5586. kBytes
   grid      :      13063. kBytes
   one-center:       1327. kBytes
   HF        :         73. kBytes
   nonlr-proj:        906. kBytes
   wavefun   :      27867. kBytes
   fock_wrk  :      44557. kBytes
 
  
  
 General timing and accounting informations for this job:
 ========================================================
  
                  Total CPU time used (sec):     6812.732
                            User time (sec):     6804.510
                          System time (sec):        8.222
                         Elapsed time (sec):     6827.686
  
                   Maximum memory used (kb):      764484.
                   Average memory used (kb):          N/A
  
                          Minor page faults:      1473871
                          Major page faults:            2
                 Voluntary context switches:        11280
