 vasp.6.2.1 16May21 (build Sep 27 2021 21:11:04) gamma-only                     
  
 executed on             LinuxIFC date 2023.05.04  00:34:27
 running   24 mpi-ranks, with    1 threads/rank
 distrk:  each k-point on   24 cores,    1 groups
 distr:  one band on NCORE=   8 cores,    3 groups


--------------------------------------------------------------------------------------------------------


 INCAR:
   GGA = PE
   ISTART = 1
   ISPIN = 2
   ENCUT = 370
   ENAUG = 740
   EDIFF = 1E-5
   IBRION = 2
   POTIM = 0.2
   ALGO = All
   NSW = 0
   EDIFFG = -1E-2
   ISMEAR = 0
   SIGMA = 0.01
   ISIF = 1
   LREAL = .FALSE.
   ISYM = 0
   PREC = Accurate
   NCORE = 8
   NELM = 60
   NWRITE = 2
   SYMPREC = 1.0e-8

 POTCAR:    PAW_PBE C 08Apr2002                   
 POTCAR:    PAW_PBE Pa 07Sep2000                  
 -----------------------------------------------------------------------------
|                                                                             |
|           W    W    AA    RRRRR   N    N  II  N    N   GGGG   !!!           |
|           W    W   A  A   R    R  NN   N  II  NN   N  G    G  !!!           |
|           W    W  A    A  R    R  N N  N  II  N N  N  G       !!!           |
|           W WW W  AAAAAA  RRRRR   N  N N  II  N  N N  G  GGG   !            |
|           WW  WW  A    A  R   R   N   NN  II  N   NN  G    G                |
|           W    W  A    A  R    R  N    N  II  N    N   GGGG   !!!           |
|                                                                             |
|     You use a magnetic or noncollinear calculation, but did not specify     |
|     the initial magnetic moment with the MAGMOM tag. Note that a            |
|     default of 1 will be used for all atoms. This ferromagnetic setup       |
|     may break the symmetry of the crystal, in particular it may rule        |
|     out finding an antiferromagnetic solution. Thence, we recommend         |
|     setting the initial magnetic moment manually or verifying carefully     |
|     that this magnetic setup is desired.                                    |
|                                                                             |
 -----------------------------------------------------------------------------

 POTCAR:    PAW_PBE C 08Apr2002                   
   SHA256 =  253f7b50bb8d59471dbedb8285d89021f4a42ed1a2c5d38a03a736e69125dd95 C/POTCAR              
   COPYR  = (c) Copyright 08Apr2002 Georg Kresse                                                    
   COPYR  = This file is part of the software VASP. Any use, copying, and all other rights are regul
   COPYR  = If you do not have a valid VASP license, you may not use, copy or distribute this file. 
   VRHFIN =C: s2p2                                                                                  
   LEXCH  = PE                                                                                      
   EATOM  =   147.1560 eV,   10.8157 Ry                                                             
                                                                                                    
   TITEL  = PAW_PBE C 08Apr2002                                                                     
   LULTRA =        F    use ultrasoft PP ?                                                          
   IUNSCR =        1    unscreen: 0-lin 1-nonlin 2-no                                               
   RPACOR =    1.200    partial core radius                                                         
   POMASS =   12.011; ZVAL   =    4.000    mass and valenz                                          
   RCORE  =    1.500    outmost cutoff radius                                                       
   RWIGS  =    1.630; RWIGS  =    0.863    wigner-seitz radius (au A)                               
   ENMAX  =  400.000; ENMIN  =  300.000 eV                                                          
   ICORE  =        2    local potential                                                             
   LCOR   =        T    correct aug charges                                                         
   LPAW   =        T    paw PP                                                                      
   EAUG   =  644.873                                                                                
   DEXC   =    0.000                                                                                
   RMAX   =    1.529    core radius for proj-oper                                                   
   RAUG   =    1.300    factor for augmentation sphere                                              
   RDEP   =    1.501    radius for radial grids                                                     
   RDEPT  =    1.300    core radius for aug-charge                                                  
                                                                                                    
   Atomic configuration                                                                             
    4 entries                                                                                       
     n  l   j            E        occ.                                                              
     1  0  0.50      -273.3789   2.0000                                                             
     2  0  0.50       -13.7508   2.0000                                                             
     2  1  0.50        -5.2854   2.0000                                                             
     3  2  1.50        -5.4423   0.0000                                                             
   Description                                                                                      
     l       E           TYP  RCUT    TYP  RCUT                                                     
     0    -13.7508458     23  1.200                                                                 
     0     -8.2022199     23  1.200                                                                 
     1     -5.2854383     23  1.500                                                                 
     1     34.0145650     23  1.500                                                                 
     2     -5.4423304      7  1.500                                                                 
  local pseudopotential read in
  partial core-charges read in
  partial kinetic energy density read in
  atomic valenz-charges read in
  non local Contribution for L=           0  read in
    real space projection operators read in
  non local Contribution for L=           0  read in
    real space projection operators read in
  non local Contribution for L=           1  read in
    real space projection operators read in
  non local Contribution for L=           1  read in
    real space projection operators read in
    PAW grid and wavefunctions read in
 
   number of l-projection  operators is LMAX  =           4
   number of lm-projection operators is LMMAX =           8
 
 POTCAR:    PAW_PBE Pa 07Sep2000                  
   SHA256 =  04e32654b760de29c7f02015f2c4b9b92aeb120699210996a29249ba80bfa323 Pa/POTCAR             
   COPYR  = (c) Copyright 07Sep2000 Georg Kresse                                                    
   COPYR  = This file is part of the software VASP. Any use, copying, and all other rights are regul
   COPYR  = If you do not have a valid VASP license, you may not use, copy or distribute this file. 
   VRHFIN =Pa:  [Xe,5d,4f]                                                                          
   LEXCH  = PE                                                                                      
   EATOM  =  1180.0855 eV,   86.7338 Ry                                                             
                                                                                                    
   TITEL  = PAW_PBE Pa 07Sep2000                                                                    
   LULTRA =        F    use ultrasoft PP ?                                                          
   IUNSCR =        1    unscreen: 0-lin 1-nonlin 2-no                                               
   RPACOR =    2.200    partial core radius                                                         
   POMASS =  229.000; ZVAL   =   13.000    mass and valenz                                          
   RCORE  =    2.800    outmost cutoff radius                                                       
   RWIGS  =    2.900; RWIGS  =    1.535    wigner-seitz radius (au A)                               
   ENMAX  =  252.193; ENMIN  =  189.145 eV                                                          
   RCLOC  =    1.808    cutoff for local pot                                                        
   LCOR   =        T    correct aug charges                                                         
   LPAW   =        T    paw PP                                                                      
   EAUG   =  536.979                                                                                
   DEXC   =    0.000                                                                                
   RMAX   =    2.858    core radius for proj-oper                                                   
   RAUG   =    1.300    factor for augmentation sphere                                              
   RDEP   =    2.921    radius for radial grids                                                     
   RDEPT  =    2.247    core radius for aug-charge                                                  
                                                                                                    
   Atomic configuration                                                                             
   18 entries                                                                                       
     n  l   j            E        occ.                                                              
     1  0  0.50   -112985.5190   2.0000                                                             
     2  0  0.50    -21035.6541   2.0000                                                             
     2  1  1.50    -17527.8639   6.0000                                                             
     3  0  0.50     -5294.0126   2.0000                                                             
     3  1  1.50     -4318.2192   6.0000                                                             
     3  2  2.50     -3460.9455  10.0000                                                             
     4  0  0.50     -1342.3530   2.0000                                                             
     4  1  1.50     -1023.6497   6.0000                                                             
     4  2  2.50      -699.1199  10.0000                                                             
     4  3  3.50      -353.3721  14.0000                                                             
     5  0  0.50      -298.9475   2.0000                                                             
     5  1  1.50      -201.1573   6.0000                                                             
     5  2  2.50       -97.1791  10.0000                                                             
     6  0  0.50       -48.3074   2.0000                                                             
     7  0  0.50        -4.5039   2.0000                                                             
     6  1  1.50       -24.3672   6.0000                                                             
     6  2  1.50        -3.1149   2.0000                                                             
     5  3  2.50        -5.1513   1.0000                                                             
   Description                                                                                      
     l       E           TYP  RCUT    TYP  RCUT                                                     
     0    -48.3074378     23  2.800                                                                 
     0     -4.5039177     23  2.800                                                                 
     1    -24.3672020     23  2.500                                                                 
     1    -25.7277846     23  2.500                                                                 
     2     -3.1148861     23  2.500                                                                 
     2      1.7959667     23  2.500                                                                 
     3     -5.1512774     23  2.800                                                                 
     3     -6.5118600     23  2.800                                                                 
  local pseudopotential read in
  partial core-charges read in
  partial kinetic energy density read in
  atomic valenz-charges read in
  non local Contribution for L=           0  read in
    real space projection operators read in
  non local Contribution for L=           0  read in
    real space projection operators read in
  non local Contribution for L=           1  read in
    real space projection operators read in
  non local Contribution for L=           1  read in
    real space projection operators read in
  non local Contribution for L=           2  read in
    real space projection operators read in
  non local Contribution for L=           2  read in
    real space projection operators read in
  non local Contribution for L=           3  read in
    real space projection operators read in
  non local Contribution for L=           3  read in
    real space projection operators read in
    PAW grid and wavefunctions read in
 
   number of l-projection  operators is LMAX  =           8
   number of lm-projection operators is LMMAX =          32
 
 -----------------------------------------------------------------------------
|                                                                             |
|               ----> ADVICE to this user running VASP <----                  |
|                                                                             |
|     You have a (more or less) 'large supercell' and for larger cells it     |
|     might be more efficient to use real-space projection operators.         |
|     Therefore, try LREAL= Auto in the INCAR file.                           |
|     Mind: For very accurate calculation, you might also keep the            |
|     reciprocal projection scheme (i.e. LREAL=.FALSE.).                      |
|                                                                             |
 -----------------------------------------------------------------------------

  PAW_PBE C 08Apr2002                   :
 energy of atom  1       EATOM= -147.1560
 kinetic energy error for atom=    0.0545 (will be added to EATOM!!)
  PAW_PBE Pa 07Sep2000                  :
 energy of atom  2       EATOM=-1180.0855
 kinetic energy error for atom=    0.0045 (will be added to EATOM!!)
 
 
 POSCAR: 3D\Atomistic
  positions in direct lattice
  velocities in cartesian coordinates
 exchange correlation table for  LEXCH =        8
   RHO(1)=    0.500       N(1)  =     2000
   RHO(2)=  100.500       N(2)  =     4000
 


--------------------------------------------------------------------------------------------------------


 ion  position               nearest neighbor table
   1  1.000  0.000  1.000- 161 1.53   6 1.54 195 1.54  72 1.54
   2  1.000  0.167  0.167-  24 1.53   7 1.54   6 1.54  21 1.54
   3  0.166  0.001  0.166-   6 1.53   5 1.54  56 1.54  55 1.54
   4  0.167  0.167  1.000- 147 1.53   8 1.54 145 1.54   6 1.54
   5  0.249  0.084  0.249-  81 1.53  76 1.53  10 1.53   3 1.54
   6  0.083  0.084  0.083-   3 1.53   1 1.54   2 1.54   4 1.54
   7  0.083  0.251  0.250-  76 1.53   2 1.54  97 1.54  27 1.54
   8  0.250  0.251  0.083-  10 1.53   4 1.54  27 1.54  33 1.54
   9  0.333  0.001  0.999- 145 1.53  56 1.53  14 1.54 203 1.54
  10  0.333  0.167  0.166-   8 1.53   5 1.53  14 1.54  15 1.54
  11  0.499  0.002  0.165-  63 1.52  14 1.53  64 1.54  13 1.54
  12  0.500  0.167  1.000-  14 1.53 155 1.53  16 1.54 153 1.54
  13  0.583  0.084  0.249-  89 1.53  18 1.53  84 1.53  11 1.54
  14  0.416  0.084  0.082-  11 1.53  12 1.53   9 1.54  10 1.54
  15  0.416  0.251  0.250- 105 1.53  35 1.53  84 1.53  10 1.54
  16  0.583  0.250  0.084-  41 1.53  18 1.53  35 1.54  12 1.54
  17  0.666  1.000  1.000-  64 1.53 153 1.53 211 1.54  22 1.54
  18  0.666  0.167  0.167-  16 1.53  13 1.53  23 1.54  22 1.54
  19  0.833  0.000  0.166-  22 1.53  21 1.53  72 1.54  71 1.54
  20  0.833  0.166  0.000- 163 1.53  22 1.53  24 1.54 161 1.54
  21  0.916  0.084  0.250-  73 1.53  19 1.53  92 1.54   2 1.54
  22  0.750  0.083  0.083-  19 1.53  20 1.53  17 1.54  18 1.54
  23  0.749  0.251  0.250-  43 1.53  92 1.53  18 1.54 111 1.54
  24  0.917  0.250  0.084-   2 1.53  20 1.54  25 1.54  43 1.54
  25  0.000  0.333  0.000- 185 1.53  30 1.53 147 1.54  24 1.54
  26  1.000  0.500  0.167-  31 1.53  48 1.53  45 1.54  30 1.54
  27  0.166  0.334  0.166-  30 1.53   8 1.54   7 1.54  29 1.54
  28  0.167  0.500  0.999-  32 1.53 171 1.53 169 1.54  30 1.54
  29  0.250  0.417  0.250- 105 1.53  34 1.54 100 1.54  27 1.54
  30  0.083  0.417  0.083-  27 1.53  25 1.53  26 1.54  28 1.54
  31  0.082  0.584  0.249-  26 1.53 100 1.53 119 1.54  51 1.54
  32  0.249  0.584  0.082-  28 1.53  34 1.53  57 1.54  51 1.54
  33  0.333  0.334  1.000- 169 1.53 155 1.53  38 1.54   8 1.54
  34  0.332  0.501  0.166-  32 1.53  38 1.53  29 1.54  39 1.54
  35  0.500  0.334  0.167-  15 1.53  16 1.54  38 1.54  37 1.55
  36  0.500  0.500  0.000-  38 1.53  40 1.53 177 1.54 179 1.54
  37  0.582  0.418  0.252- 108 1.51  42 1.53 111 1.54  35 1.55
  38  0.416  0.417  0.083-  36 1.53  34 1.53  33 1.54  35 1.54
  39  0.416  0.584  0.250- 108 1.51  59 1.54  34 1.54 127 1.54
  40  0.583  0.584  0.084-  59 1.53  42 1.53  36 1.53  65 1.54
  41  0.667  0.333  0.001- 177 1.53  16 1.53  46 1.54 163 1.54
  42  0.666  0.500  0.168-  47 1.53  37 1.53  40 1.53  46 1.54
  43  0.833  0.334  0.167-  46 1.53  45 1.53  23 1.53  24 1.54
  44  0.834  0.500  0.001- 187 1.53  48 1.53  46 1.54 185 1.54
  45  0.916  0.417  0.250-  43 1.53  97 1.53  26 1.54 114 1.54
  46  0.750  0.417  0.084-  43 1.53  41 1.54  44 1.54  42 1.54
  47  0.748  0.584  0.252- 133 1.51  42 1.53 114 1.54  67 1.55
  48  0.917  0.583  0.084-  44 1.53  26 1.53  67 1.54  49 1.54
  49  1.000  0.667  1.000-  54 1.53 209 1.53 171 1.54  48 1.54
  50  0.999  0.834  0.166-  72 1.53  55 1.53  54 1.54  69 1.54
  51  0.165  0.667  0.165-  53 1.52  54 1.52  31 1.54  32 1.54
  52  0.166  0.834  0.999- 195 1.53  56 1.53  54 1.54 193 1.54
  53  0.247  0.751  0.247- 127 1.52  51 1.52  58 1.54 122 1.54
  54  0.082  0.750  0.082-  51 1.52  49 1.53  50 1.54  52 1.54
  55  0.082  0.917  0.249- 122 1.53  50 1.53  73 1.53   3 1.54
  56  0.249  0.917  0.082-  58 1.53  52 1.53   9 1.53   3 1.54
  57  0.333  0.667  0.999-  62 1.53 193 1.53  32 1.54 179 1.54
  58  0.332  0.834  0.165-  56 1.53  62 1.54  53 1.54  63 1.54
  59  0.499  0.667  0.166-  40 1.53  39 1.54  61 1.54  62 1.54
  60  0.500  0.833  0.999-  62 1.53 203 1.53  64 1.54 201 1.54
  61  0.583  0.751  0.249- 133 1.51  59 1.54  66 1.54 129 1.54
  62  0.416  0.750  0.083-  60 1.53  57 1.53  59 1.54  58 1.54
  63  0.416  0.919  0.247- 129 1.52  11 1.52  81 1.54  58 1.54
  64  0.583  0.917  0.082-  66 1.53  17 1.53  60 1.54  11 1.54
  65  0.667  0.666  0.000-  70 1.53  40 1.54 187 1.54 201 1.54
  66  0.666  0.834  0.165-  64 1.53  71 1.53  70 1.53  61 1.54
  67  0.833  0.667  0.167-  69 1.53  70 1.54  48 1.54  47 1.55
  68  0.833  0.833  1.000-  72 1.53 211 1.53 209 1.54  70 1.54
  69  0.915  0.750  0.250-  67 1.53 136 1.53 119 1.53  50 1.54
  70  0.749  0.750  0.083-  65 1.53  66 1.53  67 1.54  68 1.54
  71  0.749  0.917  0.250- 136 1.53  89 1.53  66 1.53  19 1.54
  72  0.916  0.917  0.083-  50 1.53  68 1.53  19 1.54   1 1.54
  73  0.999  0.001  0.333-  21 1.53  55 1.53  78 1.54 140 1.54
  74  1.000  0.167  0.500-  78 1.53  96 1.53  79 1.54  93 1.54
  75  0.165  0.002  0.499- 126 1.52  78 1.53 125 1.54  77 1.54
  76  0.166  0.167  0.333-   7 1.53   5 1.53  78 1.54  80 1.54
  77  0.249  0.084  0.583- 149 1.53 144 1.53  82 1.54  75 1.54
  78  0.082  0.084  0.416-  75 1.53  74 1.53  73 1.54  76 1.54
  79  0.084  0.250  0.583- 165 1.53 144 1.53  99 1.54  74 1.54
  80  0.250  0.251  0.416- 105 1.53  99 1.53  82 1.53  76 1.54
  81  0.332  0.002  0.332-   5 1.53  86 1.54 126 1.54  63 1.54
  82  0.333  0.167  0.500-  86 1.53  80 1.53  77 1.54  87 1.54
  83  0.499  0.001  0.500-  85 1.53 131 1.53 132 1.53  86 1.53
  84  0.500  0.167  0.333-  86 1.53  15 1.53  13 1.53  88 1.54
  85  0.583  0.083  0.583-  83 1.53 157 1.53 152 1.53  90 1.53
  86  0.416  0.084  0.416-  82 1.53  84 1.53  83 1.53  81 1.54
  87  0.417  0.250  0.583- 107 1.53 173 1.53 152 1.54  82 1.54
  88  0.583  0.250  0.417- 107 1.53 111 1.53  90 1.54  84 1.54
  89  0.666  0.001  0.332-  13 1.53  71 1.53  94 1.53 132 1.54
  90  0.667  0.167  0.500-  94 1.53  85 1.53  95 1.54  88 1.54
  91  0.833  0.000  0.500- 140 1.53  93 1.53  94 1.53 139 1.55
  92  0.833  0.167  0.333-  23 1.53  96 1.53  21 1.54  94 1.54
  93  0.917  0.083  0.583- 160 1.53 141 1.53  91 1.53  74 1.54
  94  0.750  0.083  0.416-  90 1.53  89 1.53  91 1.53  92 1.54
  95  0.751  0.248  0.584- 181 1.53 160 1.53 113 1.54  90 1.54
  96  0.917  0.250  0.417- 113 1.53  74 1.53  92 1.53  97 1.54
  97  1.000  0.334  0.333-  45 1.53  96 1.54 102 1.54   7 1.54
  98  0.000  0.500  0.500- 102 1.53 103 1.54 115 1.54 118 1.54
  99  0.167  0.334  0.500-  80 1.53  79 1.54 102 1.54 101 1.55
 100  0.166  0.501  0.332-  31 1.53 102 1.53  29 1.54 104 1.54
 101  0.252  0.419  0.582- 106 1.51 168 1.53 173 1.54  99 1.55
 102  0.083  0.417  0.416-  98 1.53 100 1.53  97 1.54  99 1.54
 103  0.084  0.584  0.583- 121 1.53 168 1.53  98 1.54 189 1.54
 104  0.250  0.584  0.416- 106 1.51 121 1.54 100 1.54 127 1.54
 105  0.332  0.333  0.332-  15 1.53  80 1.53  29 1.53 110 1.56
 106  0.331  0.499  0.495- 110 1.50 101 1.51 104 1.51 213 2.58
 107  0.501  0.333  0.501-  88 1.53  87 1.53 109 1.55 110 1.55
 108  0.496  0.498  0.331- 110 1.51  37 1.51  39 1.51 213 2.58
 109  0.587  0.412  0.587- 112 1.51 176 1.51 181 1.52 107 1.55 213 2.66
 110  0.417  0.418  0.417- 106 1.50 108 1.51 107 1.55 105 1.56
 111  0.666  0.334  0.334-  88 1.53 116 1.53  37 1.54  23 1.54
 112  0.675  0.492  0.510- 116 1.49 109 1.51 117 1.51 213 2.30
 113  0.834  0.332  0.501-  96 1.53  95 1.54 115 1.54 116 1.55
 114  0.832  0.501  0.334- 118 1.53 116 1.53  47 1.54  45 1.54
 115  0.918  0.415  0.584- 184 1.53 165 1.53  98 1.54 113 1.54
 116  0.750  0.417  0.417- 112 1.49 114 1.53 111 1.53 113 1.55
 117  0.755  0.579  0.588- 205 1.51 112 1.51 184 1.52 135 1.55 213 2.65
 118  0.916  0.583  0.417- 135 1.53 114 1.53 119 1.54  98 1.54
 119  0.999  0.667  0.333- 124 1.53  69 1.53  31 1.54 118 1.54
 120  0.999  0.833  0.500- 124 1.53 140 1.53 125 1.54 137 1.54
 121  0.166  0.667  0.499- 103 1.53 104 1.54 123 1.54 124 1.54
 122  0.165  0.834  0.332-  55 1.53 124 1.54  53 1.54 126 1.54
 123  0.249  0.751  0.583- 197 1.51 121 1.54 192 1.54 128 1.54
 124  0.083  0.750  0.416- 120 1.53 119 1.53 121 1.54 122 1.54
 125  0.082  0.917  0.583- 192 1.53 141 1.53 120 1.54  75 1.54
 126  0.247  0.919  0.416- 128 1.52  75 1.52  81 1.54 122 1.54
 127  0.330  0.668  0.330- 130 1.50  53 1.52 104 1.54  39 1.54
 128  0.330  0.837  0.498- 130 1.50 126 1.52 123 1.54 131 1.54
 129  0.498  0.837  0.330- 130 1.50  63 1.52  61 1.54 132 1.54
 130  0.405  0.762  0.405- 127 1.50 129 1.50 128 1.50 213 2.17
 131  0.416  0.917  0.583- 200 1.51  83 1.53 149 1.54 128 1.54
 132  0.582  0.917  0.416- 134 1.51  83 1.53 129 1.54  89 1.54
 133  0.668  0.671  0.330- 138 1.50  61 1.51  47 1.51 213 2.58
 134  0.668  0.838  0.497- 139 1.50 132 1.51 138 1.51 213 2.59
 135  0.833  0.666  0.501- 137 1.53 118 1.53 117 1.55 138 1.55
 136  0.833  0.834  0.333-  71 1.53 140 1.53  69 1.53 138 1.59
 137  0.916  0.750  0.583- 135 1.53 208 1.53 120 1.54 189 1.54
 138  0.746  0.748  0.419- 133 1.50 134 1.51 135 1.55 136 1.59 213 2.84
 139  0.748  0.915  0.583- 134 1.50 157 1.53 208 1.54  91 1.55
 140  0.916  0.917  0.417-  91 1.53 136 1.53 120 1.53  73 1.54
 141  1.000  1.000  0.666- 125 1.53  93 1.53 212 1.54 146 1.54
 142  0.000  0.166  0.833- 164 1.53 146 1.53 147 1.54 161 1.54
 143  0.166  0.000  0.833- 146 1.53 145 1.53 195 1.54 196 1.54
 144  0.167  0.167  0.666-  79 1.53  77 1.53 148 1.54 146 1.54
 145  0.250  0.084  0.916-   9 1.53 143 1.53 150 1.54   4 1.54
 146  0.083  0.083  0.750- 143 1.53 142 1.53 141 1.54 144 1.54
 147  0.084  0.250  0.917-   4 1.53 142 1.54  25 1.54 167 1.54
 148  0.250  0.251  0.749- 167 1.53 150 1.53 144 1.54 173 1.54
 149  0.332  0.001  0.666-  77 1.53 196 1.53 154 1.53 131 1.54
 150  0.333  0.167  0.833- 148 1.53 155 1.53 145 1.54 154 1.54
 151  0.500  0.000  0.833- 203 1.53 153 1.53 154 1.54 204 1.55
 152  0.500  0.167  0.667- 154 1.53  85 1.53 156 1.54  87 1.54
 153  0.583  0.083  0.917- 158 1.53  17 1.53 151 1.53  12 1.54
 154  0.416  0.083  0.750- 152 1.53 149 1.53 151 1.54 150 1.54
 155  0.417  0.250  0.917- 175 1.53  12 1.53 150 1.53  33 1.53
 156  0.584  0.248  0.751- 181 1.53 158 1.53 175 1.54 152 1.54
 157  0.666  1.000  0.666- 139 1.53 204 1.53  85 1.53 162 1.54
 158  0.667  0.166  0.834- 156 1.53 153 1.53 162 1.54 163 1.54
 159  0.833  1.000  0.833- 162 1.53 212 1.53 211 1.53 161 1.54
 160  0.834  0.166  0.667-  95 1.53  93 1.53 162 1.54 164 1.54
 161  0.917  0.083  0.917-   1 1.53  20 1.54 142 1.54 159 1.54
 162  0.750  0.083  0.750- 159 1.53 158 1.54 160 1.54 157 1.54
 163  0.750  0.249  0.918-  20 1.53 183 1.53 158 1.54  41 1.54
 164  0.918  0.249  0.750- 142 1.53 183 1.53 160 1.54 165 1.54
 165  0.001  0.333  0.667- 115 1.53  79 1.53 170 1.54 164 1.54
 166  0.001  0.500  0.834- 188 1.53 171 1.53 170 1.54 185 1.54
 167  0.167  0.334  0.833- 170 1.53 169 1.53 148 1.53 147 1.54
 168  0.168  0.501  0.666- 172 1.53 101 1.53 103 1.53 170 1.54
 169  0.250  0.417  0.916- 167 1.53  33 1.53  28 1.54 174 1.54
 170  0.084  0.417  0.750- 167 1.53 165 1.54 166 1.54 168 1.54
 171  0.084  0.583  0.917- 166 1.53  28 1.53 191 1.54  49 1.54
 172  0.252  0.584  0.748- 197 1.51 168 1.53 174 1.54 191 1.55
 173  0.334  0.334  0.666-  87 1.53 178 1.53 101 1.54 148 1.54
 174  0.334  0.501  0.832- 179 1.53 178 1.53 172 1.54 169 1.54
 175  0.501  0.332  0.834- 155 1.53 156 1.54 177 1.54 178 1.55
 176  0.510  0.492  0.675- 178 1.49 109 1.51 180 1.51 213 2.30
 177  0.584  0.415  0.918- 182 1.53  41 1.53  36 1.54 175 1.54
 178  0.417  0.417  0.750- 176 1.49 174 1.53 173 1.53 175 1.55
 179  0.417  0.583  0.916- 199 1.53 174 1.53  57 1.54  36 1.54
 180  0.588  0.579  0.755- 205 1.51 176 1.51 182 1.52 199 1.55 213 2.65
 181  0.670  0.329  0.670- 109 1.52 156 1.53  95 1.53 186 1.54
 182  0.670  0.497  0.838- 180 1.52 187 1.53 177 1.53 186 1.54
 183  0.835  0.332  0.835- 186 1.52 185 1.53 164 1.53 163 1.53
 184  0.838  0.497  0.670- 117 1.52 188 1.53 115 1.53 186 1.54
 185  0.917  0.416  0.917-  25 1.53 183 1.53  44 1.54 166 1.54
 186  0.752  0.414  0.752- 183 1.52 184 1.54 182 1.54 181 1.54
 187  0.751  0.583  0.918- 182 1.53  44 1.53  65 1.54 207 1.54
 188  0.918  0.583  0.751- 184 1.53 166 1.53 189 1.54 207 1.54
 189  0.000  0.666  0.667- 194 1.53 103 1.54 188 1.54 137 1.54
 190  1.000  0.833  0.833- 195 1.53 212 1.53 209 1.54 194 1.54
 191  0.167  0.667  0.833- 193 1.53 194 1.54 171 1.54 172 1.55
 192  0.165  0.834  0.666- 125 1.53 196 1.53 194 1.53 123 1.54
 193  0.250  0.750  0.916- 191 1.53 198 1.53  57 1.53  52 1.54
 194  0.083  0.750  0.749- 189 1.53 192 1.53 191 1.54 190 1.54
 195  0.083  0.917  0.916-  52 1.53 190 1.53 143 1.54   1 1.54
 196  0.250  0.917  0.749- 198 1.53 149 1.53 192 1.53 143 1.54
 197  0.330  0.671  0.668- 202 1.50 123 1.51 172 1.51 213 2.58
 198  0.333  0.834  0.833- 196 1.53 203 1.53 193 1.53 202 1.59
 199  0.501  0.666  0.833- 201 1.53 179 1.53 180 1.55 202 1.55
 200  0.497  0.838  0.668- 204 1.50 131 1.51 202 1.51 213 2.59
 201  0.583  0.750  0.916- 199 1.53 206 1.53  60 1.54  65 1.54
 202  0.419  0.748  0.746- 197 1.50 200 1.51 199 1.55 198 1.59 213 2.85
 203  0.417  0.917  0.916- 151 1.53 198 1.53  60 1.53   9 1.54
 204  0.583  0.915  0.748- 200 1.50 157 1.53 206 1.54 151 1.55
 205  0.675  0.657  0.675- 210 1.49 180 1.51 117 1.51 213 2.30
 206  0.666  0.833  0.832- 201 1.53 210 1.53 204 1.54 211 1.54
 207  0.835  0.666  0.835- 209 1.52 187 1.54 188 1.54 210 1.55
 208  0.832  0.833  0.666- 137 1.53 210 1.53 139 1.54 212 1.54
 209  0.917  0.750  0.917- 207 1.52  49 1.53  68 1.54 190 1.54
 210  0.750  0.749  0.750- 205 1.49 208 1.53 206 1.53 207 1.55
 211  0.750  0.916  0.916- 159 1.53  68 1.53  17 1.54 206 1.54
 212  0.916  0.916  0.750- 159 1.53 190 1.53 141 1.54 208 1.54
 213  0.523  0.645  0.523- 130 2.17 176 2.30 112 2.30 205 2.30 197 2.58 133 2.58 106 2.58 108 2.58
                           134 2.59 200 2.59 117 2.65 180 2.65 109 2.66 138 2.84 202 2.85
 

IMPORTANT INFORMATION: All symmetrisations will be switched off!
NOSYMM: (Re-)initialisation of all symmetry stuff for point group C_1.


----------------------------------------------------------------------------------------

                                     Primitive cell                                     

  volume of cell :    1202.8529

  direct lattice vectors                    reciprocal lattice vectors
    10.635000229  0.000000000  0.000000000     0.094029147  0.000000000  0.000000000
     0.000000000 10.635000229  0.000000000     0.000000000  0.094029147  0.000000000
     0.000000000  0.000000000 10.635000229     0.000000000  0.000000000  0.094029147

  length of vectors
    10.635000229 10.635000229 10.635000229     0.094029147  0.094029147  0.094029147

  position of ions in fractional coordinates (direct lattice)
     0.999711510  0.000110187  0.999723404
     0.999662183  0.167022777  0.166590552
     0.166025140  0.000562949  0.166048411
     0.166586985  0.167041906  0.999655073
     0.249255857  0.084329027  0.249266281
     0.082956132  0.083658720  0.082967892
     0.082940613  0.250576426  0.249808014
     0.249809551  0.250586289  0.082929210
     0.332869702  0.000571889  0.999150623
     0.332880492  0.167314456  0.165960870
     0.499379029  0.001571364  0.165006438
     0.499835447  0.166923056  0.999772027
     0.582793851  0.084192108  0.249432877
     0.416312998  0.084210840  0.082248043
     0.416425371  0.250528696  0.249619353
     0.583140393  0.249994420  0.083698493
     0.666432283  0.999964112  0.999560273
     0.666400138  0.167136530  0.166773923
     0.832878224  0.000349940  0.166417690
     0.833423980  0.166372962  0.000384109
     0.915980279  0.083636231  0.249863042
     0.749628965  0.083358970  0.083355505
     0.749489537  0.250605185  0.250399165
     0.916534385  0.250131911  0.083608283
     0.000355486  0.333310250  0.000332540
     0.999502694  0.500258664  0.166772399
     0.166391095  0.333777398  0.166373866
     0.166787327  0.500268640  0.999496574
     0.249685976  0.417339034  0.249674140
     0.083308807  0.416993053  0.083295007
     0.082356249  0.583742924  0.249422862
     0.249420737  0.583750403  0.082372437
     0.333367554  0.333780388  0.999606449
     0.332313273  0.500598360  0.165547638
     0.499785878  0.333685115  0.166653617
     0.500114716  0.499936297  0.000190827
     0.582262678  0.418461903  0.251608758
     0.416426807  0.417071086  0.083268628
     0.415994807  0.583792190  0.249551523
     0.583055908  0.583513592  0.083650892
     0.666949132  0.332645200  0.001290563
     0.665863499  0.500497806  0.167648421
     0.833022233  0.333643992  0.167272790
     0.834020626  0.499725844  0.001304293
     0.916012503  0.417149356  0.250421959
     0.749816719  0.416798011  0.084434944
     0.747648864  0.583855430  0.251907639
     0.916548660  0.583403516  0.083806804
     0.999845283  0.666863514  0.999847012
     0.999113782  0.833806506  0.166202230
     0.165044227  0.667202539  0.165061891
     0.166169640  0.833820373  0.999155786
     0.247168368  0.750781856  0.247175938
     0.082367039  0.750205172  0.082402700
     0.082147747  0.917257914  0.249380370
     0.249351615  0.917276897  0.082182506
     0.333258160  0.666867396  0.999140795
     0.332347714  0.834249912  0.165028821
     0.499408392  0.667002272  0.166138010
     0.499730374  0.833390210  0.999165482
     0.582548421  0.750697209  0.249436988
     0.416225606  0.750392515  0.082507198
     0.415810875  0.919481107  0.247197355
     0.582820141  0.917247969  0.082346961
     0.666660156  0.666490236  0.000223869
     0.665951790  0.834430740  0.165418777
     0.832692079  0.666906177  0.166802948
     0.832950932  0.833322143  0.999705449
     0.915444718  0.749902315  0.250115730
     0.749470268  0.750193007  0.083316546
     0.748891380  0.916910194  0.249786583
     0.915996953  0.916774248  0.083073010
     0.999114361  0.000533219  0.332887159
     0.999787670  0.166910061  0.499835834
     0.164995959  0.001564306  0.499398144
     0.165967813  0.167310593  0.332884594
     0.249429701  0.084199352  0.582807075
     0.082237177  0.084187345  0.416333367
     0.083737069  0.250011260  0.583133512
     0.249649488  0.250543503  0.416421585
     0.332320156  0.001616084  0.332334386
     0.333091402  0.167415292  0.499680885
     0.499473927  0.000998320  0.499505135
     0.499675969  0.167407376  0.333089390
     0.583167707  0.083225917  0.583180163
     0.416156567  0.084198613  0.416163495
     0.416918260  0.250399334  0.583285102
     0.583300369  0.250384393  0.416903694
     0.666036674  0.001264873  0.332345350
     0.666687868  0.166559960  0.500094252
     0.833009809  0.000259146  0.499867878
     0.832913744  0.167105709  0.333349416
     0.916651367  0.083065437  0.583261955
     0.749561721  0.083421453  0.416491716
     0.751353047  0.248380596  0.583882504
     0.916753962  0.249923525  0.416647172
     0.999633473  0.333769892  0.333362749
     0.000218806  0.499935126  0.500121993
     0.166717629  0.333727652  0.499767062
     0.165564811  0.500608420  0.332300597
     0.251704897  0.418542788  0.582225029
     0.083294859  0.417079889  0.416419582
     0.083688764  0.583533613  0.583049864
     0.249584359  0.583800932  0.415952583
     0.332490469  0.332942374  0.332444462
     0.330770100  0.498506954  0.495465627
     0.500642704  0.333243400  0.500619281
     0.495584520  0.498448324  0.330621029
     0.587232543  0.412014836  0.587220273
     0.417096867  0.418452682  0.417034081
     0.666001074  0.334306587  0.334087898
     0.674964700  0.491619429  0.509669282
     0.834429090  0.332255612  0.500560534
     0.832239395  0.500518879  0.334197207
     0.918389598  0.415269839  0.583914915
     0.749877204  0.416634495  0.417467787
     0.754603620  0.578976095  0.587721024
     0.916067065  0.583270612  0.417042354
     0.999120004  0.666848227  0.333284791
     0.999137386  0.833362710  0.499754694
     0.166195152  0.667020432  0.499422479
     0.165013602  0.834240901  0.332370350
     0.249457207  0.750748437  0.582588070
     0.082500140  0.750378902  0.416246718
     0.082322467  0.917250266  0.582841495
     0.247188948  0.919480649  0.415827672
     0.329739518  0.668420283  0.329720203
     0.329882925  0.836880773  0.498079697
     0.498052110  0.836857979  0.329887878
     0.404712202  0.761719764  0.404733733
     0.416345891  0.917324373  0.582543518
     0.582497573  0.917316223  0.416353971
     0.667684263  0.671254768  0.330060550
     0.668135791  0.837726575  0.496507687
     0.833099221  0.665607517  0.501114499
     0.832676838  0.834406467  0.332620323
     0.916105051  0.749669548  0.583410857
     0.745938049  0.748310864  0.418671968
     0.748255736  0.915403995  0.582966835
     0.915555821  0.916724243  0.416736569
     0.999548562  0.999968397  0.666440335
     0.000394198  0.166385829  0.833418522
     0.166412593  0.000372812  0.832895069
     0.166786855  0.167155165  0.666397545
     0.249847734  0.083668861  0.915994203
     0.083353566  0.083375680  0.749635776
     0.083622792  0.250151742  0.916515521
     0.250420638  0.250635800  0.749468017
     0.332339659  0.001273648  0.666062116
     0.333348597  0.167133627  0.832906505
     0.499858049  0.000291462  0.833052499
     0.500089499  0.166571976  0.666690847
     0.583250302  0.083080883  0.916667413
     0.416483370  0.083444201  0.749581278
     0.416646449  0.249945141  0.916732276
     0.583882177  0.248388898  0.751342194
     0.666255962  0.999562944  0.666289132
     0.667001853  0.165578907  0.834082946
     0.833140336  0.999506402  0.833143162
     0.834089752  0.165576833  0.666999666
     0.916592206  0.083091382  0.916593473
     0.749994956  0.082516774  0.749998472
     0.750349836  0.249267485  0.917509146
     0.917530806  0.249275846  0.750338939
     0.001336838  0.332656655  0.666938136
     0.001347191  0.499734948  0.834003792
     0.167304290  0.333671997  0.832996552
     0.167731250  0.500559021  0.665838222
     0.250439281  0.417174894  0.915996948
     0.084494265  0.416830438  0.749788706
     0.083825258  0.583422385  0.916552296
     0.251953870  0.583944878  0.747642912
     0.334116694  0.334349979  0.665968674
     0.334207507  0.500568685  0.832220513
     0.500561686  0.332286811  0.834391465
     0.509686235  0.491666171  0.674922471
     0.583910394  0.415280341  0.918360385
     0.417467826  0.416685422  0.749846306
     0.417032548  0.583299988  0.916082861
     0.587674960  0.579032510  0.754603058
     0.669716451  0.329201588  0.669707778
     0.669864128  0.496824447  0.837562295
     0.834811672  0.331933534  0.834791501
     0.837587214  0.496806279  0.669874364
     0.917493249  0.416363479  0.917464116
     0.752230049  0.414371296  0.752228453
     0.751409862  0.582731436  0.918387843
     0.918408879  0.582727168  0.751410285
     0.000239573  0.666488701  0.666665674
     0.999703030  0.833328611  0.832956569
     0.166827962  0.666936352  0.832700043
     0.165423668  0.834451459  0.665970246
     0.250081227  0.749947054  0.915512971
     0.083317353  0.750209140  0.749483951
     0.083052154  0.916791030  0.916021009
     0.249768737  0.916939882  0.748948074
     0.330197099  0.671377671  0.667708412
     0.332623716  0.834447835  0.832787312
     0.501073726  0.665669386  0.833134587
     0.496515447  0.837715909  0.668194731
     0.583396321  0.749692819  0.916134765
     0.418568076  0.748477816  0.746139137
     0.416696687  0.916787405  0.915636603
     0.582916310  0.915445943  0.748320795
     0.675382177  0.657085860  0.675388536
     0.666274812  0.832611152  0.832498896
     0.834626589  0.666128980  0.834620177
     0.832476955  0.832594363  0.666291856
     0.916848775  0.749982116  0.916850968
     0.750190672  0.749139113  0.750210196
     0.749597114  0.916326395  0.916137385
     0.916122833  0.916323456  0.749602181
     0.522711408  0.644576615  0.522668259

  ion indices of the primitive-cell ions
   primitive index   ion index
                 1           1
                 2           2
                 3           3
                 4           4
                 5           5
                 6           6
                 7           7
                 8           8
                 9           9
                10          10
                11          11
                12          12
                13          13
                14          14
                15          15
                16          16
                17          17
                18          18
                19          19
                20          20
                21          21
                22          22
                23          23
                24          24
                25          25
                26          26
                27          27
                28          28
                29          29
                30          30
                31          31
                32          32
                33          33
                34          34
                35          35
                36          36
                37          37
                38          38
                39          39
                40          40
                41          41
                42          42
                43          43
                44          44
                45          45
                46          46
                47          47
                48          48
                49          49
                50          50
                51          51
                52          52
                53          53
                54          54
                55          55
                56          56
                57          57
                58          58
                59          59
                60          60
                61          61
                62          62
                63          63
                64          64
                65          65
                66          66
                67          67
                68          68
                69          69
                70          70
                71          71
                72          72
                73          73
                74          74
                75          75
                76          76
                77          77
                78          78
                79          79
                80          80
                81          81
                82          82
                83          83
                84          84
                85          85
                86          86
                87          87
                88          88
                89          89
                90          90
                91          91
                92          92
                93          93
                94          94
                95          95
                96          96
                97          97
                98          98
                99          99
               100         100
               101         101
               102         102
               103         103
               104         104
               105         105
               106         106
               107         107
               108         108
               109         109
               110         110
               111         111
               112         112
               113         113
               114         114
               115         115
               116         116
               117         117
               118         118
               119         119
               120         120
               121         121
               122         122
               123         123
               124         124
               125         125
               126         126
               127         127
               128         128
               129         129
               130         130
               131         131
               132         132
               133         133
               134         134
               135         135
               136         136
               137         137
               138         138
               139         139
               140         140
               141         141
               142         142
               143         143
               144         144
               145         145
               146         146
               147         147
               148         148
               149         149
               150         150
               151         151
               152         152
               153         153
               154         154
               155         155
               156         156
               157         157
               158         158
               159         159
               160         160
               161         161
               162         162
               163         163
               164         164
               165         165
               166         166
               167         167
               168         168
               169         169
               170         170
               171         171
               172         172
               173         173
               174         174
               175         175
               176         176
               177         177
               178         178
               179         179
               180         180
               181         181
               182         182
               183         183
               184         184
               185         185
               186         186
               187         187
               188         188
               189         189
               190         190
               191         191
               192         192
               193         193
               194         194
               195         195
               196         196
               197         197
               198         198
               199         199
               200         200
               201         201
               202         202
               203         203
               204         204
               205         205
               206         206
               207         207
               208         208
               209         209
               210         210
               211         211
               212         212
               213         213

----------------------------------------------------------------------------------------

 
 
 KPOINTS: 1 x 1 x 1 k-mesh (automatic generation o

Automatic generation of k-mesh.
 Grid dimensions read from file:
 generate k-points for:    1    1    1

 Generating k-lattice:

  Cartesian coordinates                     Fractional coordinates (reciprocal lattice)
     0.094029147  0.000000000  0.000000000     1.000000000  0.000000000  0.000000000
     0.000000000  0.094029147  0.000000000     0.000000000  1.000000000  0.000000000
     0.000000000  0.000000000  0.094029147     0.000000000  0.000000000  1.000000000

  Length of vectors
     0.094029147  0.094029147  0.094029147

  Shift w.r.t. Gamma in fractional coordinates (k-lattice)
     0.000000000  0.000000000  0.000000000

 
 Subroutine IBZKPT returns following result:
 ===========================================
 
 Found      1 irreducible k-points:
 
 Following reciprocal coordinates:
            Coordinates               Weight
  0.000000  0.000000  0.000000      1.000000
 
 Following cartesian coordinates:
            Coordinates               Weight
  0.000000  0.000000  0.000000      1.000000
 


--------------------------------------------------------------------------------------------------------




 Dimension of arrays:
   k-points           NKPTS =      1   k-points in BZ     NKDIM =      1   number of bands    NBANDS=    645
   number of dos      NEDOS =    301   number of ions     NIONS =    213
   non local maximal  LDIM  =      8   non local SUM 2l+1 LMDIM =     32
   total plane-waves  NPLWV = 343000
   max r-space proj   IRMAX =      1   max aug-charges    IRDMAX=  17079
   dimension x,y,z NGX =    70 NGY =   70 NGZ =   70
   dimension x,y,z NGXF=   140 NGYF=  140 NGZF=  140
   support grid    NGXF=   140 NGYF=  140 NGZF=  140
   ions per type =             212   1
   NGX,Y,Z   is equivalent  to a cutoff of  10.94, 10.94, 10.94 a.u.
   NGXF,Y,Z  is equivalent  to a cutoff of  21.88, 21.88, 21.88 a.u.

 SYSTEM =  unknown system                          
 POSCAR =  3D\Atomistic                            

 Startparameter for this run:
   NWRITE =      2    write-flag & timer
   PREC   = accura    normal or accurate (medium, high low for compatibility)
   ISTART =      1    job   : 0-new  1-cont  2-samecut
   ICHARG =      0    charge: 1-file 2-atom 10-const
   ISPIN  =      2    spin polarized calculation?
   LNONCOLLINEAR =      F non collinear calculations
   LSORBIT =      F    spin-orbit coupling
   INIWAV =      1    electr: 0-lowe 1-rand  2-diag
   LASPH  =      F    aspherical Exc in radial PAW
 Electronic Relaxation 1
   ENCUT  =  370.0 eV  27.19 Ry    5.21 a.u.  16.68 16.68 16.68*2*pi/ulx,y,z
   ENINI  =  370.0     initial cutoff
   ENAUG  =  740.0 eV  augmentation charge cutoff
   NELM   =     60;   NELMIN=  2; NELMDL=  0     # of ELM steps 
   EDIFF  = 0.1E-04   stopping-criterion for ELM
   LREAL  =      F    real-space projection
   NLSPLINE    = F    spline interpolate recip. space projectors
   LCOMPAT=      F    compatible to vasp.4.4
   GGA_COMPAT  = T    GGA compatible to vasp.4.4-vasp.4.6
   LMAXPAW     = -100 max onsite density
   LMAXMIX     =    2 max onsite mixed and CHGCAR
   VOSKOWN=      0    Vosko Wilk Nusair interpolation
   ROPT   =    0.00000   0.00000
 Ionic relaxation
   EDIFFG = -.1E-01   stopping-criterion for IOM
   NSW    =      0    number of steps for IOM
   NBLOCK =      1;   KBLOCK =      1    inner block; outer block 
   IBRION =     -1    ionic relax: 0-MD 1-quasi-New 2-CG
   NFREE  =      1    steps in history (QN), initial steepest desc. (CG)
   ISIF   =      1    stress and relaxation
   IWAVPR =     10    prediction:  0-non 1-charg 2-wave 3-comb
   ISYM   =      0    0-nonsym 1-usesym 2-fastsym
   LCORR  =      T    Harris-Foulkes like correction to forces

   POTIM  = 0.2000    time-step for ionic-motion
   TEIN   =    0.0    initial temperature
   TEBEG  =    0.0;   TEEND  =   0.0 temperature during run
   SMASS  =  -3.00    Nose mass-parameter (am)
   estimated Nose-frequenzy (Omega)   =  0.10E-29 period in steps = 0.31E+47 mass=  -0.258E-26a.u.
   SCALEE = 1.0000    scale energy and forces
   NPACO  =    256;   APACO  = 16.0  distance and # of slots for P.C.
   PSTRESS=    0.0 pullay stress

  Mass of Ions in am
   POMASS =  12.01229.00
  Ionic Valenz
   ZVAL   =   4.00 13.00
  Atomic Wigner-Seitz radii
   RWIGS  =  -1.00 -1.00
  virtual crystal weights 
   VCA    =   1.00  1.00
   NELECT =     861.0000    total number of electrons
   NUPDOWN=      -1.0000    fix difference up-down

 DOS related values:
   EMIN   =  10.00;   EMAX   =-10.00  energy-range for DOS
   EFERMI =   0.00
   ISMEAR =     0;   SIGMA  =   0.01  broadening in eV -4-tet -1-fermi 0-gaus

 Electronic relaxation 2 (details)
   IALGO  =     58    algorithm
   LDIAG  =      T    sub-space diagonalisation (order eigenvalues)
   LSUBROT=      F    optimize rotation matrix (better conditioning)
   TURBO    =      0    0=normal 1=particle mesh
   IRESTART =      0    0=no restart 2=restart with 2 vectors
   NREBOOT  =      0    no. of reboots
   NMIN     =      0    reboot dimension
   EREF     =   0.00    reference energy to select bands
   IMIX   =      4    mixing-type and parameters
     AMIX     =   0.40;   BMIX     =  1.00
     AMIX_MAG =   1.60;   BMIX_MAG =  1.00
     AMIN     =   0.10
     WC   =   100.;   INIMIX=   1;  MIXPRE=   1;  MAXMIX= -45

 Intra band minimization:
   WEIMIN = 0.0000     energy-eigenvalue tresh-hold
   EBREAK =  0.39E-08  absolut break condition
   DEPER  =   0.30     relativ break condition  

   TIME   =   0.40     timestep for ELM

  volume/ion in A,a.u.               =       5.65        38.11
  Fermi-wavevector in a.u.,A,eV,Ry     =   1.464440  2.767391 29.178861  2.144586
  Thomas-Fermi vector in A             =   2.580416
 
 Write flags
   LWAVE        =      T    write WAVECAR
   LDOWNSAMPLE  =      F    k-point downsampling of WAVECAR
   LCHARG       =      T    write CHGCAR
   LVTOT        =      F    write LOCPOT, total local potential
   LVHAR        =      F    write LOCPOT, Hartree potential only
   LELF         =      F    write electronic localiz. function (ELF)
   LORBIT       =      0    0 simple, 1 ext, 2 COOP (PROOUT), +10 PAW based schemes


 Dipole corrections
   LMONO  =      F    monopole corrections only (constant potential shift)
   LDIPOL =      F    correct potential (dipole corrections)
   IDIPOL =      0    1-x, 2-y, 3-z, 4-all directions 
   EPSILON=  1.0000000 bulk dielectric constant

 Exchange correlation treatment:
   GGA     =    PE    GGA type
   LEXCH   =     8    internal setting for exchange type
   VOSKOWN=      0    Vosko Wilk Nusair interpolation
   LHFCALC =     F    Hartree Fock is set to
   LHFONE  =     F    Hartree Fock one center treatment
   AEXX    =    0.0000 exact exchange contribution

 Linear response parameters
   LEPSILON=     F    determine dielectric tensor
   LRPA    =     F    only Hartree local field effects (RPA)
   LNABLA  =     F    use nabla operator in PAW spheres
   LVEL    =     F    velocity operator in full k-point grid
   LINTERFAST=   F  fast interpolation
   KINTER  =     0    interpolate to denser k-point grid
   CSHIFT  =0.1000    complex shift for real part using Kramers Kronig
   OMEGAMAX=  -1.0    maximum frequency
   DEG_THRESHOLD= 0.2000000E-02 threshold for treating states as degnerate
   RTIME   =   -0.100 relaxation time in fs
  (WPLASMAI=    0.000 imaginary part of plasma frequency in eV, 0.658/RTIME)
   DFIELD  = 0.0000000 0.0000000 0.0000000 field for delta impulse in time
 
 Orbital magnetization related:
   ORBITALMAG=     F  switch on orbital magnetization
   LCHIMAG   =     F  perturbation theory with respect to B field
   DQ        =  0.001000  dq finite difference perturbation B field
   LLRAUG    =     F  two centre corrections for induced B field



--------------------------------------------------------------------------------------------------------


 Static calculation
 charge density and potential will be updated during run
 spin polarized calculation
 Conjugate gradient for all bands (Freysoldt, et al. PRB 79, 241103 (2009))
 preconditioned conjugated gradient                                        
 perform sub-space diagonalisation
    before iterative eigenvector-optimisation
 modified Broyden-mixing scheme, WC =      100.0
 initial mixing is a Kerker type mixing with AMIX =  0.4000 and BMIX =      1.0000
 Hartree-type preconditioning will be used
 using additional bands          214
 reciprocal scheme for non local part
 use partial core corrections
 no Harris-corrections to forces 
 use gradient corrections 
 use of overlap-Matrix (Vanderbilt PP)
 Gauss-broadening in eV      SIGMA  =   0.01


--------------------------------------------------------------------------------------------------------


  energy-cutoff  :      370.00
  volume of cell :     1202.85
      direct lattice vectors                 reciprocal lattice vectors
    10.635000229  0.000000000  0.000000000     0.094029147  0.000000000  0.000000000
     0.000000000 10.635000229  0.000000000     0.000000000  0.094029147  0.000000000
     0.000000000  0.000000000 10.635000229     0.000000000  0.000000000  0.094029147

  length of vectors
    10.635000229 10.635000229 10.635000229     0.094029147  0.094029147  0.094029147


 
 old parameters found on file WAVECAR:
  energy-cutoff  :      370.00
  volume of cell :     1202.85
      direct lattice vectors                 reciprocal lattice vectors
    10.635000229  0.000000000  0.000000000     0.094029147  0.000000000  0.000000000
     0.000000000 10.635000229  0.000000000     0.000000000  0.094029147  0.000000000
     0.000000000  0.000000000 10.635000229     0.000000000  0.000000000  0.094029147

  length of vectors

 
 k-points in units of 2pi/SCALE and weight: 1 x 1 x 1 k-mesh (automatic generation o
   0.00000000  0.00000000  0.00000000       1.000
 
 k-points in reciprocal lattice and weights: 1 x 1 x 1 k-mesh (automatic generation o
   0.00000000  0.00000000  0.00000000       1.000
 
 position of ions in fractional coordinates (direct lattice) 
   0.99971151  0.00011019  0.99972340
   0.99966218  0.16702278  0.16659055
   0.16602514  0.00056295  0.16604841
   0.16658699  0.16704191  0.99965507
   0.24925586  0.08432903  0.24926628
   0.08295613  0.08365872  0.08296789
   0.08294061  0.25057643  0.24980801
   0.24980955  0.25058629  0.08292921
   0.33286970  0.00057189  0.99915062
   0.33288049  0.16731446  0.16596087
   0.49937903  0.00157136  0.16500644
   0.49983545  0.16692306  0.99977203
   0.58279385  0.08419211  0.24943288
   0.41631300  0.08421084  0.08224804
   0.41642537  0.25052870  0.24961935
   0.58314039  0.24999442  0.08369849
   0.66643228  0.99996411  0.99956027
   0.66640014  0.16713653  0.16677392
   0.83287822  0.00034994  0.16641769
   0.83342398  0.16637296  0.00038411
   0.91598028  0.08363623  0.24986304
   0.74962897  0.08335897  0.08335550
   0.74948954  0.25060518  0.25039917
   0.91653438  0.25013191  0.08360828
   0.00035549  0.33331025  0.00033254
   0.99950269  0.50025866  0.16677240
   0.16639110  0.33377740  0.16637387
   0.16678733  0.50026864  0.99949657
   0.24968598  0.41733903  0.24967414
   0.08330881  0.41699305  0.08329501
   0.08235625  0.58374292  0.24942286
   0.24942074  0.58375040  0.08237244
   0.33336755  0.33378039  0.99960645
   0.33231327  0.50059836  0.16554764
   0.49978588  0.33368512  0.16665362
   0.50011472  0.49993630  0.00019083
   0.58226268  0.41846190  0.25160876
   0.41642681  0.41707109  0.08326863
   0.41599481  0.58379219  0.24955152
   0.58305591  0.58351359  0.08365089
   0.66694913  0.33264520  0.00129056
   0.66586350  0.50049781  0.16764842
   0.83302223  0.33364399  0.16727279
   0.83402063  0.49972584  0.00130429
   0.91601250  0.41714936  0.25042196
   0.74981672  0.41679801  0.08443494
   0.74764886  0.58385543  0.25190764
   0.91654866  0.58340352  0.08380680
   0.99984528  0.66686351  0.99984701
   0.99911378  0.83380651  0.16620223
   0.16504423  0.66720254  0.16506189
   0.16616964  0.83382037  0.99915579
   0.24716837  0.75078186  0.24717594
   0.08236704  0.75020517  0.08240270
   0.08214775  0.91725791  0.24938037
   0.24935162  0.91727690  0.08218251
   0.33325816  0.66686740  0.99914080
   0.33234771  0.83424991  0.16502882
   0.49940839  0.66700227  0.16613801
   0.49973037  0.83339021  0.99916548
   0.58254842  0.75069721  0.24943699
   0.41622561  0.75039251  0.08250720
   0.41581087  0.91948111  0.24719736
   0.58282014  0.91724797  0.08234696
   0.66666016  0.66649024  0.00022387
   0.66595179  0.83443074  0.16541878
   0.83269208  0.66690618  0.16680295
   0.83295093  0.83332214  0.99970545
   0.91544472  0.74990231  0.25011573
   0.74947027  0.75019301  0.08331655
   0.74889138  0.91691019  0.24978658
   0.91599695  0.91677425  0.08307301
   0.99911436  0.00053322  0.33288716
   0.99978767  0.16691006  0.49983583
   0.16499596  0.00156431  0.49939814
   0.16596781  0.16731059  0.33288459
   0.24942970  0.08419935  0.58280707
   0.08223718  0.08418734  0.41633337
   0.08373707  0.25001126  0.58313351
   0.24964949  0.25054350  0.41642158
   0.33232016  0.00161608  0.33233439
   0.33309140  0.16741529  0.49968089
   0.49947393  0.00099832  0.49950514
   0.49967597  0.16740738  0.33308939
   0.58316771  0.08322592  0.58318016
   0.41615657  0.08419861  0.41616349
   0.41691826  0.25039933  0.58328510
   0.58330037  0.25038439  0.41690369
   0.66603667  0.00126487  0.33234535
   0.66668787  0.16655996  0.50009425
   0.83300981  0.00025915  0.49986788
   0.83291374  0.16710571  0.33334942
   0.91665137  0.08306544  0.58326195
   0.74956172  0.08342145  0.41649172
   0.75135305  0.24838060  0.58388250
   0.91675396  0.24992352  0.41664717
   0.99963347  0.33376989  0.33336275
   0.00021881  0.49993513  0.50012199
   0.16671763  0.33372765  0.49976706
   0.16556481  0.50060842  0.33230060
   0.25170490  0.41854279  0.58222503
   0.08329486  0.41707989  0.41641958
   0.08368876  0.58353361  0.58304986
   0.24958436  0.58380093  0.41595258
   0.33249047  0.33294237  0.33244446
   0.33077010  0.49850695  0.49546563
   0.50064270  0.33324340  0.50061928
   0.49558452  0.49844832  0.33062103
   0.58723254  0.41201484  0.58722027
   0.41709687  0.41845268  0.41703408
   0.66600107  0.33430659  0.33408790
   0.67496470  0.49161943  0.50966928
   0.83442909  0.33225561  0.50056053
   0.83223940  0.50051888  0.33419721
   0.91838960  0.41526984  0.58391492
   0.74987720  0.41663449  0.41746779
   0.75460362  0.57897609  0.58772102
   0.91606707  0.58327061  0.41704235
   0.99912000  0.66684823  0.33328479
   0.99913739  0.83336271  0.49975469
   0.16619515  0.66702043  0.49942248
   0.16501360  0.83424090  0.33237035
   0.24945721  0.75074844  0.58258807
   0.08250014  0.75037890  0.41624672
   0.08232247  0.91725027  0.58284150
   0.24718895  0.91948065  0.41582767
   0.32973952  0.66842028  0.32972020
   0.32988293  0.83688077  0.49807970
   0.49805211  0.83685798  0.32988788
   0.40471220  0.76171976  0.40473373
   0.41634589  0.91732437  0.58254352
   0.58249757  0.91731622  0.41635397
   0.66768426  0.67125477  0.33006055
   0.66813579  0.83772658  0.49650769
   0.83309922  0.66560752  0.50111450
   0.83267684  0.83440647  0.33262032
   0.91610505  0.74966955  0.58341086
   0.74593805  0.74831086  0.41867197
   0.74825574  0.91540400  0.58296683
   0.91555582  0.91672424  0.41673657
   0.99954856  0.99996840  0.66644033
   0.00039420  0.16638583  0.83341852
   0.16641259  0.00037281  0.83289507
   0.16678686  0.16715517  0.66639754
   0.24984773  0.08366886  0.91599420
   0.08335357  0.08337568  0.74963578
   0.08362279  0.25015174  0.91651552
   0.25042064  0.25063580  0.74946802
   0.33233966  0.00127365  0.66606212
   0.33334860  0.16713363  0.83290651
   0.49985805  0.00029146  0.83305250
   0.50008950  0.16657198  0.66669085
   0.58325030  0.08308088  0.91666741
   0.41648337  0.08344420  0.74958128
   0.41664645  0.24994514  0.91673228
   0.58388218  0.24838890  0.75134219
   0.66625596  0.99956294  0.66628913
   0.66700185  0.16557891  0.83408295
   0.83314034  0.99950640  0.83314316
   0.83408975  0.16557683  0.66699967
   0.91659221  0.08309138  0.91659347
   0.74999496  0.08251677  0.74999847
   0.75034984  0.24926748  0.91750915
   0.91753081  0.24927585  0.75033894
   0.00133684  0.33265665  0.66693814
   0.00134719  0.49973495  0.83400379
   0.16730429  0.33367200  0.83299655
   0.16773125  0.50055902  0.66583822
   0.25043928  0.41717489  0.91599695
   0.08449426  0.41683044  0.74978871
   0.08382526  0.58342238  0.91655230
   0.25195387  0.58394488  0.74764291
   0.33411669  0.33434998  0.66596867
   0.33420751  0.50056869  0.83222051
   0.50056169  0.33228681  0.83439147
   0.50968623  0.49166617  0.67492247
   0.58391039  0.41528034  0.91836039
   0.41746783  0.41668542  0.74984631
   0.41703255  0.58329999  0.91608286
   0.58767496  0.57903251  0.75460306
   0.66971645  0.32920159  0.66970778
   0.66986413  0.49682445  0.83756229
   0.83481167  0.33193353  0.83479150
   0.83758721  0.49680628  0.66987436
   0.91749325  0.41636348  0.91746412
   0.75223005  0.41437130  0.75222845
   0.75140986  0.58273144  0.91838784
   0.91840888  0.58272717  0.75141029
   0.00023957  0.66648870  0.66666567
   0.99970303  0.83332861  0.83295657
   0.16682796  0.66693635  0.83270004
   0.16542367  0.83445146  0.66597025
   0.25008123  0.74994705  0.91551297
   0.08331735  0.75020914  0.74948395
   0.08305215  0.91679103  0.91602101
   0.24976874  0.91693988  0.74894807
   0.33019710  0.67137767  0.66770841
   0.33262372  0.83444783  0.83278731
   0.50107373  0.66566939  0.83313459
   0.49651545  0.83771591  0.66819473
   0.58339632  0.74969282  0.91613477
   0.41856808  0.74847782  0.74613914
   0.41669669  0.91678740  0.91563660
   0.58291631  0.91544594  0.74832079
   0.67538218  0.65708586  0.67538854
   0.66627481  0.83261115  0.83249890
   0.83462659  0.66612898  0.83462018
   0.83247696  0.83259436  0.66629186
   0.91684877  0.74998212  0.91685097
   0.75019067  0.74913911  0.75021020
   0.74959711  0.91632640  0.91613739
   0.91612283  0.91632346  0.74960218
   0.52271141  0.64457661  0.52266826
 
 position of ions in cartesian coordinates  (Angst):
  10.63193213  0.00117184 10.63205863
  10.63140754  1.77628728  1.77169056
   1.76567741  0.00598696  1.76592489
   1.77165262  1.77649070 10.63133193
   2.65083610  0.89683922  2.65094696
   0.88223848  0.88971051  0.88236355
   0.88207344  2.66488034  2.65670829
   2.65672463  2.66498524  0.88195217
   3.54006936  0.00608204 10.62596710
   3.54018411  1.77938927  1.76499389
   5.31089609  0.01671145  1.75484350
   5.31575009  1.77522674 10.63257573
   6.19801274  0.89538308  2.65271870
   4.42748882  0.89558230  0.87470796
   4.42868392  2.66437274  2.65470188
   6.20169822  2.65869072  0.89013349
   7.08750748 10.63461856 10.63032373
   7.08716562  1.77749703  1.77364071
   8.85766010  0.00372161  1.76985217
   8.86346422  1.76937649  0.00408499
   9.74145048  0.88947134  2.65729351
   7.97230422  0.88652267  0.88648581
   7.97082140  2.66518620  2.66299518
   9.74734339  2.66015293  0.88917411
   0.00378059  3.54475459  0.00353656
  10.62971138  5.32025101  1.77362450
   1.76956934  3.54972270  1.76938611
   1.77378326  5.32035710 10.62964629
   2.65541041  4.43840073  2.65528454
   0.88598918  4.43472121  0.88584242
   0.87585873  6.20810614  2.65261219
   2.65258960  6.20818567  0.87603089
   3.54536401  3.54975451 10.63081482
   3.53415174  5.32386368  1.76059917
   5.31522293  3.54874128  1.77236125
   5.31872012  5.31682263  0.00202944
   6.19236372  4.45034243  2.67585920
   4.42869919  4.43555110  0.88556188
   4.42410487  6.20863007  2.65398051
   6.20079972  6.20566718  0.88962725
   7.09300417  3.53768178  0.01372514
   7.08145847  5.32279428  1.78294099
   8.85919164  3.54830393  1.77894616
   8.86980955  5.31458446  0.01387116
   9.74179317  4.43638350  2.66323759
   7.97430098  4.43264694  0.89796565
   7.95124584  6.20930263  2.67903780
   9.74749521  6.20449652  0.89128538
  10.63335481  7.09209362 10.63337320
  10.62557530  8.86753238  1.76756075
   1.75524539  7.09569915  1.75543324
   1.76721416  8.86767986 10.62602201
   2.62863565  7.98456521  2.62871616
   0.87597347  7.97843218  0.87635273
   0.87364131  9.75503812  2.65216029
   2.65185449  9.75524001  0.87401097
   3.54420060  7.09213491 10.62586259
   3.53451802  8.87224800  1.75508155
   5.31120837  7.09356932  1.76687778
   5.31463264  8.86310508 10.62612513
   6.19540259  7.98366499  2.65276243
   4.42655942  7.98042456  0.87746407
   4.42214875  9.77868179  2.62894393
   6.19829233  9.75493236  0.87575995
   7.08993091  7.08812382  0.00238084
   7.08239744  8.87417112  1.75922873
   8.85568045  7.09254735  1.77394939
   8.85843335  8.86238118 10.63186768
   9.73575478  7.97521129  2.65998085
   7.97061648  7.97830281  0.88607149
   7.96446000  9.75134012  2.65648037
   9.74162780  9.74989433  0.88348148
  10.62558146  0.00567078  3.54025501
  10.63274210  1.77508854  5.31575421
   1.75473206  0.01663640  5.31109937
   1.76506773  1.77934819  3.54022774
   2.65268492  0.89546012  6.19815337
   0.87459240  0.89533243  4.42770545
   0.89054375  2.65886981  6.20162503
   2.65502236  2.66453022  4.42864365
   3.53422493  0.01718706  3.53437628
   3.54242714  1.78046167  5.31410633
   5.31190533  0.01061714  5.31223723
   5.31405405  1.78037748  3.54240574
   6.20198869  0.88510764  6.20212117
   4.42582518  0.89545227  4.42589886
   4.43392579  2.66299697  6.20323719
   6.20339956  2.66283808  4.43377088
   7.08330018  0.01345192  3.53449288
   7.09022563  1.77136521  5.31850248
   8.85905951  0.00275602  5.31609499
   8.85803785  1.77716925  3.54517112
   9.74858749  0.88340094  6.20299102
   7.97158907  0.88718717  4.42938950
   7.99063983  2.64152770  6.20959056
   9.74967860  2.65793674  4.43104276
  10.63110221  3.54964288  3.54531292
   0.00232700  5.31681018  5.31879751
   1.77304202  3.54919366  5.31502282
   1.76078180  5.32397066  3.53401692
   2.67688163  4.45120264  6.19196331
   0.88584085  4.43564472  4.42862235
   0.89003002  6.20588011  6.20073544
   2.65432971  6.20872304  4.42365581
   3.53603621  3.54084223  3.53554693
   3.51774009  5.30162156  5.26927706
   5.32433527  3.54404363  5.32408616
   5.27054149  5.30099804  3.51615472
   6.24521823  4.38177788  6.24508774
   4.43582527  4.45024437  4.43515755
   7.08292157  3.55535063  3.55302487
   7.17824974  5.22837274  5.42033293
   8.87415356  3.53353851  5.32346139
   8.85086616  5.32301839  3.55418737
   9.76707359  4.41639483  6.20993526
   7.97494423  4.43090795  4.43977001
   8.02520967  6.15741090  6.25041322
   9.74237345  6.20308309  4.43524553
  10.62564147  7.09193105  3.54448383
  10.62582632  8.86281261  5.31489129
   1.76748548  7.09376245  5.31135817
   1.75491970  8.87215217  3.53475875
   2.65297745  7.98420980  6.19582426
   0.87738901  7.98027980  4.42678395
   0.87549946  9.75495679  6.19851944
   2.62885452  9.77867692  4.42232739
   3.50677985  7.10864987  3.50657443
   3.50830498  8.90022722  5.29707769
   5.29678430  8.89998480  3.50835766
   4.30411437  8.10088986  4.30434334
   4.42783865  9.75574492  6.19535044
   6.19486182  9.75565825  4.42792458
   7.10082229  7.13879461  3.51019402
   7.10562430  8.90922232  5.28035937
   8.86001041  7.07873609  5.32935282
   8.85551836  8.87391296  3.53741721
   9.74277743  7.97273581  6.20457459
   7.93305132  7.95828621  4.45257648
   7.95769992  9.73532170  6.19985242
   9.73693636  9.74936253  4.43199350
  10.63019919 10.63466413  7.08759311
   0.00419230  1.76951333  8.86340618
   1.76979796  0.00396486  8.85783925
   1.77377824  1.77769522  7.08713804
   2.65713071  0.88981835  9.74159856
   0.88646520  0.88670037  7.97237665
   0.88932841  2.66036383  9.74714278
   2.66322354  2.66551179  7.97059253
   3.53443235  0.01354524  7.08357076
   3.54516240  1.77746616  8.85796087
   5.31599047  0.00309969  8.85951351
   5.31845194  1.77149300  7.09025731
   6.20286709  0.88356521  9.74875814
   4.42930073  0.88742910  7.97179706
   4.43103508  2.65816663  9.74944796
   6.20958708  2.64161599  7.99052441
   7.08563231 10.63035213  7.08598507
   7.09356485  1.76093171  8.87047233
   8.86044767 10.62975082  8.86047771
   8.87054470  1.76090966  7.09354160
   9.74795832  0.88367687  9.74797180
   7.97619653  0.87756591  7.97623392
   7.97997068  2.65095976  9.75770998
   9.75794034  2.65104868  7.97985479
   0.01421727  3.53780360  7.09288723
   0.01432738  5.31468129  8.86963052
   1.77928117  3.54860176  8.85891852
   1.78382188  5.32344531  7.08118965
   2.66342182  4.43665509  9.74162776
   0.89859653  4.43299180  7.97400306
   0.89148164  6.20469719  9.74753388
   2.67952947  6.21025391  7.95118254
   3.55333112  3.55581210  7.08257700
   3.55429691  5.32354808  8.85066534
   5.32347364  3.53387031  8.87375343
   5.42051322  5.22886984  7.17780063
   6.20988717  4.41650652  9.76676291
   4.43977043  4.43144956  7.97461564
   4.43514124  6.20339551  9.74254143
   6.24992333  6.15801088  8.02520369
   7.12243461  3.50105897  7.12234238
   7.12400515  5.28372811  8.90747520
   8.87822232  3.53011321  8.87800780
   8.90774021  5.28353489  7.12411402
   9.75754091  4.42802569  9.75723109
   7.99996674  4.40683882  7.99994977
   7.99124405  6.19734896  9.76705492
   9.76727863  6.19730356  7.99124855
   0.00254786  7.08810749  7.08998959
  10.63184195  8.86244997  8.85849330
   1.77421542  7.09286826  8.85576515
   1.75928074  8.87439146  7.08259371
   2.65961391  7.97568710  9.73648066
   0.88608007  7.97847438  7.97076199
   0.88325968  9.75007281  9.74188364
   2.65629057  9.75165586  7.96506293
   3.51164622  7.14010168  7.10107911
   3.53745329  8.87435291  8.85669326
   5.32891919  7.07939407  8.86038652
   5.28044190  8.90910888  7.10625112
   6.20442001  7.97298330  9.74309344
   4.45147159  7.96006174  7.93518990
   4.43156936  9.75003426  9.73779548
   6.19931509  9.73576781  7.95839182
   7.18268960  6.98810827  7.18275724
   7.08583278  8.85481980  8.85362595
   8.87625396  7.08428185  8.87618578
   8.85339261  8.85464124  7.08601404
   9.75068693  7.97605997  9.75071026
   7.97827797  7.96709464  7.97848560
   7.97196548  9.74513142  9.74312130
   9.74296654  9.74510017  7.97201936
   5.55903595  6.85507244  5.55857706
 


--------------------------------------------------------------------------------------------------------


 use parallel FFT for orbitals z direction half grid
 k-point   1 :   0.0000 0.0000 0.0000  plane waves:    9775

 maximum and minimum number of plane-waves per node :      1225     1219

 maximum number of plane-waves:      9775
 maximum index in each direction: 
   IXMAX=   16   IYMAX=   16   IZMAX=   16
   IXMIN=  -16   IYMIN=  -16   IZMIN=    0


 parallel 3D FFT for wavefunctions:
    minimum data exchange during FFTs selected (reduces bandwidth)
 parallel 3D FFT for charge:
    minimum data exchange during FFTs selected (reduces bandwidth)


 total amount of memory used by VASP MPI-rank0    81825. kBytes
=======================================================================

   base      :      30000. kBytes
   nonl-proj :       4798. kBytes
   fftplans  :       4899. kBytes
   grid      :      13063. kBytes
   one-center:       1327. kBytes
   wavefun   :      27738. kBytes
 
     INWAV:  cpu time    0.4231: real time    0.4921
 Broyden mixing: mesh for mixing (old mesh)
   NGX = 33   NGY = 33   NGZ = 33
  (NGX  =140   NGY  =140   NGZ  =140)
  gives a total of  35937 points

 charge density for first step will be calculated from the start-wavefunctions


--------------------------------------------------------------------------------------------------------


 Maximum index for augmentation-charges          773 (set IRDMAX)


--------------------------------------------------------------------------------------------------------


 initial charge from wavefunction
 First call to EWALD:  gamma=   0.167
 Maximum number of real-space cells 3x 3x 3
 Maximum number of reciprocal cells 3x 3x 3

    FEWALD:  cpu time    0.0113: real time    0.0113


--------------------------------------- Iteration      1(   1)  ---------------------------------------


    POTLOK:  cpu time    0.2310: real time    0.2509
    SETDIJ:  cpu time    0.0656: real time    0.0700
    TRIAL :  cpu time    5.3042: real time    5.7099
    CORREC:  cpu time    1.3507: real time    1.6845
    CHARGE:  cpu time    0.1846: real time    0.1993
    --------------------------------------------
      LOOP:  cpu time    7.1546: real time    7.9406

 eigenvalue-minimisations  :     0
 total energy-change (2. order) :-0.1925658E+04  (-0.5382408E-06)
 number of electron     860.9999984 magnetization       1.0000000
 augmentation part       18.2737993 magnetization       0.0769983

 Free energy of the ion-electron system (eV)
  ---------------------------------------------------
  alpha Z        PSCENC =      3247.59703608
  Ewald energy   TEWEN  =    -38305.91887740
  -Hartree energ DENC   =     -2904.67548141
  -exchange      EXHF   =         0.00000000
  -V(xc)+E(xc)   XCENC  =      3029.92607594
  PAW double counting   =     89086.22229459   -89209.98549604
  entropy T*S    EENTRO =        -0.00000002
  eigenvalues    EBANDS =       765.57942815
  atomic energy  EATOM  =     32365.59724555
  ---------------------------------------------------
  free energy    TOTEN  =     -1925.65777456 eV

  energy without entropy =    -1925.65777454  energy(sigma->0) =    -1925.65777455


--------------------------------------------------------------------------------------------------------




--------------------------------------- Iteration      1(   2)  ---------------------------------------


    POTLOK:  cpu time    0.3167: real time    0.3371
    SETDIJ:  cpu time    0.0902: real time    0.0948
    TRIAL :  cpu time    5.6287: real time    6.0820
    CORREC:  cpu time    5.1342: real time    8.5460
    EDDIAG:  cpu time    1.7173: real time    1.8175
    CHARGE:  cpu time    0.1925: real time    0.2048
    --------------------------------------------
      LOOP:  cpu time   13.0823: real time   17.0859

 eigenvalue-minimisations  :     0
 total energy-change (2. order) :-0.5408074E-06  (-0.2745664E-06)
 number of electron     860.9999984 magnetization       1.0000000
 augmentation part       18.2738022 magnetization       0.0769991

 Free energy of the ion-electron system (eV)
  ---------------------------------------------------
  alpha Z        PSCENC =      3247.59703608
  Ewald energy   TEWEN  =    -38305.91887740
  -Hartree energ DENC   =     -2904.67579672
  -exchange      EXHF   =         0.00000000
  -V(xc)+E(xc)   XCENC  =      3029.92607620
  PAW double counting   =     89086.22217941   -89209.98532710
  entropy T*S    EENTRO =        -0.00000002
  eigenvalues    EBANDS =       765.57968890
  atomic energy  EATOM  =     32365.59724555
  ---------------------------------------------------
  free energy    TOTEN  =     -1925.65777510 eV

  energy without entropy =    -1925.65777508  energy(sigma->0) =    -1925.65777509


--------------------------------------------------------------------------------------------------------


  average scaling for gradient   1.0462


 average (electrostatic) potential at core
  the test charge radii are     0.6991  1.1967
  (the norm of the test charge is              1.0000)
       1 -45.2238       2 -45.2059       3 -45.2010       4 -45.2045       5 -45.1583
       6 -45.2047       7 -45.1636       8 -45.1633       9 -45.2201      10 -45.1649
      11 -45.1280      12 -45.1502      13 -45.1462      14 -45.1525      15 -45.0930
      16 -45.1196      17 -45.1635      18 -45.1526      19 -45.2392      20 -45.1947
      21 -45.2027      22 -45.1889      23 -45.1396      24 -45.1853      25 -45.1802
      26 -45.1342      27 -45.1571      28 -45.1334      29 -45.0769      30 -45.1570
      31 -45.1078      32 -45.1077      33 -45.1444      34 -45.0385      35 -45.0508
      36 -45.1380      37 -44.9128      38 -45.0934      39 -44.9589      40 -45.0841
      41 -45.1577      42 -45.0199      43 -45.1403      44 -45.1618      45 -45.1359
      46 -45.1275      47 -45.0297      48 -45.1521      49 -45.1635      50 -45.2348
      51 -45.1027      52 -45.2304      53 -45.0800      54 -45.1720      55 -45.1838
      56 -45.1821      57 -45.1538      58 -45.1372      59 -45.0537      60 -45.1685
      61 -45.0832      62 -45.1237      63 -45.1175      64 -45.1497      65 -45.1588
      66 -45.1445      67 -45.1438      68 -45.1826      69 -45.2083      70 -45.1540
      71 -45.2129      72 -45.2094      73 -45.2250      74 -45.1506      75 -45.1256
      76 -45.1653      77 -45.1426      78 -45.1534      79 -45.1185      80 -45.0928
      81 -45.1395      82 -45.1322      83 -45.1278      84 -45.1335      85 -45.1294
      86 -45.1282      87 -45.1085      88 -45.1097      89 -45.1822      90 -45.1651
      91 -45.1643      92 -45.1792      93 -45.1566      94 -45.1669      95 -45.1610
      96 -45.1488      97 -45.1443      98 -45.1367      99 -45.0484     100 -45.0350
     101 -44.9087     102 -45.0917     103 -45.0796     104 -44.9534     105 -45.1013
     106 -43.9723     107 -45.1347     108 -43.9847     109 -45.2703     110 -44.9404
     111 -45.0529     112 -44.5831     113 -45.1571     114 -45.0858     115 -45.1464
     116 -45.1186     117 -45.2845     118 -45.1447     119 -45.1563     120 -45.1697
     121 -45.0469     122 -45.1367     123 -45.0683     124 -45.1228     125 -45.1463
     126 -45.1144     127 -45.0912     128 -45.1849     129 -45.1928     130 -44.2997
     131 -45.1334     132 -45.1433     133 -44.3783     134 -44.5132     135 -45.2482
     136 -45.4225     137 -45.1582     138 -45.2894     139 -45.0713     140 -45.2061
     141 -45.1616     142 -45.1933     143 -45.2328     144 -45.1498     145 -45.1994
     146 -45.1862     147 -45.1843     148 -45.1374     149 -45.1737     150 -45.1764
     151 -45.1574     152 -45.1636     153 -45.1546     154 -45.1624     155 -45.1486
[...]
     10.63141      1.77629      1.77169        -0.000736      0.000898     -0.000944
      1.76568      0.00599      1.76592        -0.000475      0.001053     -0.000873
      1.77165      1.77649     10.63133        -0.000688     -0.000837      0.000324
      2.65084      0.89684      2.65095         0.000189     -0.001348      0.000433
      0.88224      0.88971      0.88236         0.000274      0.000403     -0.000439
      0.88207      2.66488      2.65671         0.001367      0.000677      0.002084
      2.65672      2.66499      0.88195         0.000437     -0.000023      0.001948
      3.54007      0.00608     10.62597        -0.002135     -0.000544      0.000613
      3.54018      1.77939      1.76499        -0.001039     -0.000645     -0.001618
      5.31090      0.01671      1.75484         0.005034      0.003926     -0.001467
      5.31575      1.77523     10.63258        -0.000326      0.001553      0.000018
      6.19801      0.89538      2.65272        -0.000999      0.001861      0.001286
      4.42749      0.89558      0.87471         0.000538     -0.001483      0.000171
      4.42868      2.66437      2.65470        -0.002383     -0.001278     -0.000410
      6.20170      2.65869      0.89013         0.001391     -0.000563      0.002517
      7.08751     10.63462     10.63032         0.002274      0.003414     -0.001981
      7.08717      1.77750      1.77364         0.000130      0.001346     -0.003682
      8.85766      0.00372      1.76985         0.003500      0.000015     -0.001279
      8.86346      1.76938      0.00408        -0.000328      0.001844     -0.000676
      9.74145      0.88947      2.65729         0.001928     -0.001132      0.000088
      7.97230      0.88652      0.88649         0.000304     -0.001508      0.001124
      7.97082      2.66519      2.66300        -0.000392      0.001199      0.000835
      9.74734      2.66015      0.88917         0.000625      0.001650      0.002435
      0.00378      3.54475      0.00354         0.000341     -0.000148      0.001881
     10.62971      5.32025      1.77362        -0.000992     -0.002078     -0.001999
      1.76957      3.54972      1.76939        -0.003905     -0.000867     -0.001660
      1.77378      5.32036     10.62965        -0.003501     -0.001813     -0.001032
      2.65541      4.43840      2.65528        -0.001728     -0.002812     -0.001152
      0.88599      4.43472      0.88584        -0.000981     -0.001051     -0.000158
      0.87586      6.20811      2.65261        -0.000019     -0.001071      0.000478
      2.65259      6.20819      0.87603        -0.000404     -0.001265     -0.001287
      3.54536      3.54975     10.63081        -0.002466     -0.002247     -0.001441
      3.53415      5.32386      1.76060        -0.001176     -0.002249      0.000141
      5.31522      3.54874      1.77236        -0.000626      0.002301     -0.000809
      5.31872      5.31682      0.00203        -0.000169      0.001107     -0.000965
      6.19236      4.45034      2.67586        -0.004397      0.001950      0.002737
      4.42870      4.43555      0.88556        -0.000862     -0.002036     -0.000996
      4.42410      6.20863      2.65398        -0.002491     -0.003725      0.000300
      6.20080      6.20567      0.88963         0.000328      0.000595     -0.002273
      7.09300      3.53768      0.01373         0.001745      0.000898     -0.002733
      7.08146      5.32279      1.78294        -0.002747      0.004512      0.002259
      8.85919      3.54830      1.77895        -0.000586     -0.001246     -0.000175
      8.86981      5.31458      0.01387        -0.002985     -0.001301     -0.001597
      9.74179      4.43638      2.66324         0.000099     -0.000854      0.001082
      7.97430      4.43265      0.89797         0.001109     -0.001799      0.002054
      7.95125      6.20930      2.67904         0.000481      0.000871      0.001650
      9.74750      6.20450      0.89129         0.001293      0.001001      0.000411
     10.63335      7.09209     10.63337        -0.000839      0.000042     -0.001481
     10.62558      8.86753      1.76756         0.000157      0.001784     -0.000050
      1.75525      7.09570      1.75543        -0.003268     -0.005025     -0.003542
      1.76721      8.86768     10.62602         0.000562      0.000602     -0.001719
      2.62864      7.98457      2.62872        -0.001573     -0.003450     -0.001203
      0.87597      7.97843      0.87635         0.001330     -0.000529      0.000206
      0.87364      9.75504      2.65216         0.002678     -0.001565      0.001902
      2.65185      9.75524      0.87401         0.001544     -0.001552      0.001212
      3.54420      7.09213     10.62586         0.000135     -0.000146     -0.001008
      3.53452      8.87225      1.75508         0.000947      0.000340      0.001259
      5.31121      7.09357      1.76688         0.001855      0.000882      0.004829
      5.31463      8.86311     10.62613         0.003083      0.000482     -0.002072
      6.19540      7.98366      2.65276         0.001495      0.001467     -0.001501
      4.42656      7.98042      0.87746        -0.000639     -0.002360     -0.001195
      4.42215      9.77868      2.62894        -0.001175     -0.002652      0.002589
      6.19829      9.75493      0.87576         0.000322      0.000220     -0.001777
      7.08993      7.08812      0.00238        -0.000301      0.000639     -0.001481
      7.08240      8.87417      1.75923         0.002719      0.004149     -0.000847
      8.85568      7.09255      1.77395         0.000589     -0.000801     -0.001078
      8.85843      8.86238     10.63187         0.001448      0.002471     -0.001663
      9.73575      7.97521      2.65998         0.000874      0.000732      0.001663
      7.97062      7.97830      0.88607         0.005246     -0.001294     -0.000370
      7.96446      9.75134      2.65648         0.002951     -0.001480      0.003757
      9.74163      9.74989      0.88348         0.001865     -0.000501      0.001112
     10.62558      0.00567      3.54026         0.001705      0.000707     -0.002943
     10.63274      1.77509      5.31575        -0.000614      0.002668     -0.000337
      1.75473      0.01664      5.31110        -0.001736      0.004527      0.004103
      1.76507      1.77935      3.54023        -0.002308      0.000043     -0.000623
      2.65268      0.89546      6.19815         0.000890      0.001452     -0.001058
      0.87459      0.89533      4.42771         0.000274     -0.000299     -0.000008
      0.89054      2.65887      6.20163         0.000731     -0.000521      0.001256
      2.65502      2.66453      4.42864        -0.002514     -0.001771     -0.001831
      3.53422      0.01719      3.53438        -0.001936     -0.001415     -0.001963
      3.54243      1.78046      5.31411        -0.000312      0.002102      0.000527
      5.31191      0.01062      5.31224        -0.000500     -0.003841     -0.001827
      5.31405      1.78038      3.54241         0.000730      0.002391      0.000325
      6.20199      0.88511      6.20212        -0.000969      0.003438     -0.001818
      4.42583      0.89545      4.42590         0.000415      0.000635      0.001256
      4.43393      2.66300      6.20324        -0.002662     -0.000575     -0.001630
      6.20340      2.66284      4.43377        -0.002526     -0.000064     -0.001769
      7.08330      0.01345      3.53449         0.003403      0.001773     -0.001526
      7.09023      1.77137      5.31850         0.000431      0.001618      0.003392
      8.85906      0.00276      5.31609         0.000141      0.002424      0.000423
      8.85804      1.77717      3.54517        -0.000582      0.001289     -0.000177
      9.74859      0.88340      6.20299         0.002566     -0.003872      0.000064
      7.97159      0.88719      4.42939         0.002839      0.001696      0.001164
      7.99064      2.64153      6.20959         0.000850      0.002098      0.001193
      9.74968      2.65794      4.43104        -0.001067     -0.001767     -0.000439
     10.63110      3.54964      3.54531        -0.002318     -0.002735     -0.002186
      0.00233      5.31681      5.31880        -0.001379      0.001326     -0.000863
      1.77304      3.54919      5.31502        -0.003867      0.001349      0.000801
      1.76078      5.32397      3.53402        -0.001447     -0.001944     -0.000053
      2.67688      4.45120      6.19196        -0.001404     -0.000736     -0.003233
      0.88584      4.43564      4.42862        -0.001898     -0.002186      0.000142
      0.89003      6.20588      6.20074        -0.002781     -0.000081      0.000018
      2.65433      6.20872      4.42366        -0.002428     -0.005448     -0.001039
      3.53604      3.54084      3.53555        -0.005146     -0.004821     -0.003915
      3.51774      5.30162      5.26928        -0.002978     -0.001012      0.000168
      5.32434      3.54404      5.32409        -0.000300      0.001328      0.000553
      5.27054      5.30100      3.51615        -0.004697      0.000359      0.002645
      6.24522      4.38178      6.24509        -0.000401     -0.003431     -0.001277
      4.43583      4.45024      4.43516        -0.003119      0.000570      0.000720
      7.08292      3.55535      3.55302        -0.000856      0.000430      0.000617
      7.17825      5.22837      5.42033        -0.000369      0.003625      0.004332
      8.87415      3.53354      5.32346        -0.001890      0.000310      0.000883
      8.85087      5.32302      3.55419         0.000129     -0.003512      0.000739
      9.76707      4.41639      6.20994        -0.000285      0.001347      0.000399
      7.97494      4.43091      4.43977         0.001797      0.000931     -0.000890
      8.02521      6.15741      6.25041         0.002631      0.000349     -0.000359
      9.74237      6.20308      4.43525         0.002862      0.001664      0.001656
     10.62564      7.09193      3.54448         0.000429      0.000348     -0.000125
     10.62583      8.86281      5.31489        -0.000315      0.001319      0.002282
      1.76749      7.09376      5.31136         0.002513     -0.001526      0.002731
      1.75492      8.87215      3.53476         0.001729      0.000522      0.000738
      2.65298      7.98421      6.19582        -0.002950      0.000492      0.001714
      0.87739      7.98028      4.42678        -0.000185     -0.001543     -0.000703
      0.87550      9.75496      6.19852         0.000141     -0.000208      0.000030
      2.62885      9.77868      4.42233         0.001463     -0.001752     -0.000063
      3.50678      7.10865      3.50657        -0.003382      0.002734     -0.000403
      3.50830      8.90023      5.29708        -0.002430     -0.000364     -0.000916
      5.29678      8.89998      3.50836        -0.000415      0.001058     -0.001082
      4.30411      8.10089      4.30434        -0.001730     -0.003623     -0.000036
      4.42784      9.75574      6.19535         0.001732     -0.001253      0.000057
      6.19486      9.75566      4.42792         0.001029     -0.000318      0.002424
      7.10082      7.13879      3.51019         0.001002      0.002365      0.002257
      7.10562      8.90922      5.28036         0.001894      0.005361      0.002446
      8.86001      7.07874      5.32935        -0.000140      0.003296     -0.000240
      8.85552      8.87391      3.53742         0.001097      0.001293      0.004846
      9.74278      7.97274      6.20457         0.003115     -0.001810     -0.001877
      7.93305      7.95829      4.45258         0.005185      0.001457     -0.002165
      7.95770      9.73532      6.19985         0.000133     -0.000538     -0.000693
      9.73694      9.74936      4.43199         0.001632     -0.000078     -0.001109
     10.63020     10.63466      7.08759        -0.001073      0.002562      0.001568
      0.00419      1.76951      8.86341        -0.001175      0.000887     -0.001073
      1.76980      0.00396      8.85784        -0.002265     -0.001277      0.001602
      1.77378      1.77770      7.08714        -0.004444      0.000506     -0.000827
      2.65713      0.88982      9.74160         0.000107     -0.002487      0.000603
      0.88647      0.88670      7.97238         0.000697     -0.001843     -0.000425
      0.88933      2.66036      9.74714         0.002127      0.000171      0.001278
      2.66322      2.66551      7.97059        -0.001120      0.000931     -0.000020
      3.53443      0.01355      7.08357        -0.001005      0.000658      0.002062
      3.54516      1.77747      8.85796        -0.000242      0.000072     -0.000793
      5.31599      0.00310      8.85951         0.000942      0.000649     -0.002375
      5.31845      1.77149      7.09026         0.003034      0.001164      0.000056
      6.20287      0.88357      9.74876         0.000770     -0.004430      0.001173
      4.42930      0.88743      7.97180         0.000501      0.000506      0.000477
      4.43104      2.65817      9.74945        -0.001544     -0.001534     -0.001240
      6.20959      2.64162      7.99052         0.001686      0.001914      0.000732
      7.08563     10.63035      7.08599        -0.001901     -0.000368     -0.003286
      7.09356      1.76093      8.87047         0.003962      0.002456      0.000529
      8.86045     10.62975      8.86048         0.000215      0.002632      0.000472
      8.87054      1.76091      7.09354        -0.000047      0.002323      0.004086
      9.74796      0.88368      9.74797         0.000616      0.001015     -0.000344
      7.97620      0.87757      7.97623         0.001531     -0.002237      0.000713
      7.97997      2.65096      9.75771         0.000814     -0.000660      0.002118
      9.75794      2.65105      7.97985         0.002532     -0.001514     -0.000265
      0.01422      3.53780      7.09289        -0.004252      0.001565      0.000807
      0.01433      5.31468      8.86963        -0.003178     -0.000331     -0.003084
      1.77928      3.54860      8.85892        -0.002220     -0.001622      0.000067
      1.78382      5.32345      7.08119        -0.000279      0.002703     -0.002600
      2.66342      4.43666      9.74163        -0.000306     -0.001238     -0.001261
      0.89860      4.43299      7.97400        -0.000565     -0.002744      0.001202
      0.89148      6.20470      9.74753        -0.000656      0.000218     -0.000254
      2.67953      6.21025      7.95118        -0.000450     -0.001185     -0.000516
      3.55333      3.55581      7.08258        -0.000732     -0.000301      0.000195
      3.55430      5.32355      8.85067         0.000222     -0.004517     -0.000369
      5.32347      3.53387      8.87375         0.002256     -0.000765     -0.000571
      5.42051      5.22887      7.17780         0.003185      0.002684     -0.000714
      6.20989      4.41651      9.76676         0.001121      0.000774     -0.000638
      4.43977      4.43145      7.97462        -0.001792     -0.000852      0.001596
      4.43514      6.20340      9.74254         0.000609      0.000506      0.000825
      6.24992      6.15801      8.02520         0.001488     -0.000373      0.002351
      7.12243      3.50106      7.12234        -0.000394     -0.001057     -0.001557
      7.12401      5.28373      8.90748         0.002333      0.003091      0.002937
      8.87822      3.53011      8.87801        -0.002048      0.000891     -0.000954
      8.90774      5.28353      7.12411         0.002715      0.002475      0.001754
      9.75754      4.42803      9.75723         0.004404      0.002884      0.004842
      7.99997      4.40684      7.99995         0.002362      0.001409      0.000917
      7.99124      6.19735      9.76705        -0.000306     -0.001509     -0.000499
      9.76728      6.19730      7.99125        -0.000103     -0.001140     -0.000926
      0.00255      7.08811      7.08999        -0.001502      0.001564     -0.000988
     10.63184      8.86245      8.85849        -0.001298      0.002239      0.001599
      1.77422      7.09287      8.85577        -0.002117     -0.002611     -0.001299
      1.75928      8.87439      7.08259        -0.001119      0.002507      0.000920
      2.65961      7.97569      9.73648         0.001346     -0.000226     -0.002254
      0.88608      7.97847      7.97076        -0.000046     -0.001511      0.003060
      0.88326      9.75007      9.74188         0.001730     -0.001928      0.000018
      2.65629      9.75166      7.96506         0.003664     -0.001904      0.000506
      3.51165      7.14010      7.10108        -0.002116     -0.001481     -0.000950
      3.53745      8.87435      8.85669         0.003924      0.001205     -0.002354
      5.32892      7.07939      8.86039         0.001380      0.001227     -0.002527
      5.28044      8.90911      7.10625         0.001462      0.004910     -0.000850
      6.20442      7.97298      9.74309        -0.001742     -0.001724      0.000565
      4.45147      7.96006      7.93519        -0.000137     -0.004221     -0.002962
      4.43157      9.75003      9.73780        -0.000874     -0.001963     -0.002066
      6.19932      9.73577      7.95839        -0.000393     -0.002346     -0.003059
      7.18269      6.98811      7.18276         0.001441      0.001797      0.000296
      7.08583      8.85482      8.85363         0.002999      0.001917      0.000591
      8.87625      7.08428      8.87619        -0.001391      0.003742     -0.001017
      8.85339      8.85464      7.08601         0.001736      0.002659      0.003228
      9.75069      7.97606      9.75071         0.002335     -0.001596      0.002310
      7.97828      7.96709      7.97849        -0.000298     -0.001745     -0.002173
      7.97197      9.74513      9.74312        -0.000377     -0.001325      0.000536
      9.74297      9.74510      7.97202         0.002136     -0.000744     -0.000384
      5.55904      6.85507      5.55858        -0.000803     -0.001621      0.003565
 -----------------------------------------------------------------------------------
    total drift:                                0.001434     -0.000423     -0.001083


--------------------------------------------------------------------------------------------------------



  FREE ENERGIE OF THE ION-ELECTRON SYSTEM (eV)
  ---------------------------------------------------
  free  energy   TOTEN  =     -1925.65777510 eV

  energy  without entropy=    -1925.65777508  energy(sigma->0) =    -1925.65777509
 


--------------------------------------------------------------------------------------------------------


    POTLOK:  cpu time    0.3049: real time    0.3222


--------------------------------------------------------------------------------------------------------


 writing wavefunctions
     LOOP+:  cpu time   33.7105: real time   41.6695
    4ORBIT:  cpu time    0.0000: real time    0.0000

 total amount of memory used by VASP MPI-rank0    81825. kBytes
=======================================================================

   base      :      30000. kBytes
   nonl-proj :       4798. kBytes
   fftplans  :       4899. kBytes
   grid      :      13063. kBytes
   one-center:       1327. kBytes
   wavefun   :      27738. kBytes
 
  
  
 General timing and accounting informations for this job:
 ========================================================
  
                  Total CPU time used (sec):       45.253
                            User time (sec):       38.467
                          System time (sec):        6.786
                         Elapsed time (sec):       56.995
  
                   Maximum memory used (kb):      343272.
                   Average memory used (kb):          N/A
  
                          Minor page faults:       180436
                          Major page faults:            0
                 Voluntary context switches:         2724
