 vasp.6.2.1 16May21 (build Sep 27 2021 21:11:04) gamma-only                     
  
 executed on             LinuxIFC date 2023.05.03  22:40:03
 running   24 mpi-ranks, with    1 threads/rank
 distrk:  each k-point on   24 cores,    1 groups
 distr:  one band on NCORE=   8 cores,    3 groups


--------------------------------------------------------------------------------------------------------


 INCAR:
   GGA = PE
   ISTART = 1
   ISPIN = 2
   ENCUT = 370
   ENAUG = 740
   EDIFF = 1E-5
   IBRION = 2
   POTIM = 0.2
   ALGO = All
   NSW = 0
   EDIFFG = -1E-2
   ISMEAR = 0
   SIGMA = 0.01
   ISIF = 1
   LREAL = .FALSE.
   ISYM = 0
   PREC = Accurate
   LDAU = .TRUE.
   LDAUTYPE = 1
   LDAUL = -1 3
   LDAUU = 0.00 3.5
   LDAUJ = 0.00 1
   LDAUPRINT = 2
   LMAXMIX = 6
   NCORE = 8
   NELM = 60
   NWRITE = 2
   SYMPREC = 1.0e-8

 POTCAR:    PAW_PBE C 08Apr2002                   
 POTCAR:    PAW_PBE Pa 07Sep2000                  
 -----------------------------------------------------------------------------
|                                                                             |
|           W    W    AA    RRRRR   N    N  II  N    N   GGGG   !!!           |
|           W    W   A  A   R    R  NN   N  II  NN   N  G    G  !!!           |
|           W    W  A    A  R    R  N N  N  II  N N  N  G       !!!           |
|           W WW W  AAAAAA  RRRRR   N  N N  II  N  N N  G  GGG   !            |
|           WW  WW  A    A  R   R   N   NN  II  N   NN  G    G                |
|           W    W  A    A  R    R  N    N  II  N    N   GGGG   !!!           |
|                                                                             |
|     You use a magnetic or noncollinear calculation, but did not specify     |
|     the initial magnetic moment with the MAGMOM tag. Note that a            |
|     default of 1 will be used for all atoms. This ferromagnetic setup       |
|     may break the symmetry of the crystal, in particular it may rule        |
|     out finding an antiferromagnetic solution. Thence, we recommend         |
|     setting the initial magnetic moment manually or verifying carefully     |
|     that this magnetic setup is desired.                                    |
|                                                                             |
 -----------------------------------------------------------------------------

 POTCAR:    PAW_PBE C 08Apr2002                   
   SHA256 =  253f7b50bb8d59471dbedb8285d89021f4a42ed1a2c5d38a03a736e69125dd95 C/POTCAR              
   COPYR  = (c) Copyright 08Apr2002 Georg Kresse                                                    
   COPYR  = This file is part of the software VASP. Any use, copying, and all other rights are regul
   COPYR  = If you do not have a valid VASP license, you may not use, copy or distribute this file. 
   VRHFIN =C: s2p2                                                                                  
   LEXCH  = PE                                                                                      
   EATOM  =   147.1560 eV,   10.8157 Ry                                                             
                                                                                                    
   TITEL  = PAW_PBE C 08Apr2002                                                                     
   LULTRA =        F    use ultrasoft PP ?                                                          
   IUNSCR =        1    unscreen: 0-lin 1-nonlin 2-no                                               
   RPACOR =    1.200    partial core radius                                                         
   POMASS =   12.011; ZVAL   =    4.000    mass and valenz                                          
   RCORE  =    1.500    outmost cutoff radius                                                       
   RWIGS  =    1.630; RWIGS  =    0.863    wigner-seitz radius (au A)                               
   ENMAX  =  400.000; ENMIN  =  300.000 eV                                                          
   ICORE  =        2    local potential                                                             
   LCOR   =        T    correct aug charges                                                         
   LPAW   =        T    paw PP                                                                      
   EAUG   =  644.873                                                                                
   DEXC   =    0.000                                                                                
   RMAX   =    1.529    core radius for proj-oper                                                   
   RAUG   =    1.300    factor for augmentation sphere                                              
   RDEP   =    1.501    radius for radial grids                                                     
   RDEPT  =    1.300    core radius for aug-charge                                                  
                                                                                                    
   Atomic configuration                                                                             
    4 entries                                                                                       
     n  l   j            E        occ.                                                              
     1  0  0.50      -273.3789   2.0000                                                             
     2  0  0.50       -13.7508   2.0000                                                             
     2  1  0.50        -5.2854   2.0000                                                             
     3  2  1.50        -5.4423   0.0000                                                             
   Description                                                                                      
     l       E           TYP  RCUT    TYP  RCUT                                                     
     0    -13.7508458     23  1.200                                                                 
     0     -8.2022199     23  1.200                                                                 
     1     -5.2854383     23  1.500                                                                 
     1     34.0145650     23  1.500                                                                 
     2     -5.4423304      7  1.500                                                                 
  local pseudopotential read in
  partial core-charges read in
  partial kinetic energy density read in
  atomic valenz-charges read in
  non local Contribution for L=           0  read in
    real space projection operators read in
  non local Contribution for L=           0  read in
    real space projection operators read in
  non local Contribution for L=           1  read in
    real space projection operators read in
  non local Contribution for L=           1  read in
    real space projection operators read in
    PAW grid and wavefunctions read in
 
   number of l-projection  operators is LMAX  =           4
   number of lm-projection operators is LMMAX =           8
 
 POTCAR:    PAW_PBE Pa 07Sep2000                  
   SHA256 =  04e32654b760de29c7f02015f2c4b9b92aeb120699210996a29249ba80bfa323 Pa/POTCAR             
   COPYR  = (c) Copyright 07Sep2000 Georg Kresse                                                    
   COPYR  = This file is part of the software VASP. Any use, copying, and all other rights are regul
   COPYR  = If you do not have a valid VASP license, you may not use, copy or distribute this file. 
   VRHFIN =Pa:  [Xe,5d,4f]                                                                          
   LEXCH  = PE                                                                                      
   EATOM  =  1180.0855 eV,   86.7338 Ry                                                             
                                                                                                    
   TITEL  = PAW_PBE Pa 07Sep2000                                                                    
   LULTRA =        F    use ultrasoft PP ?                                                          
   IUNSCR =        1    unscreen: 0-lin 1-nonlin 2-no                                               
   RPACOR =    2.200    partial core radius                                                         
   POMASS =  229.000; ZVAL   =   13.000    mass and valenz                                          
   RCORE  =    2.800    outmost cutoff radius                                                       
   RWIGS  =    2.900; RWIGS  =    1.535    wigner-seitz radius (au A)                               
   ENMAX  =  252.193; ENMIN  =  189.145 eV                                                          
   RCLOC  =    1.808    cutoff for local pot                                                        
   LCOR   =        T    correct aug charges                                                         
   LPAW   =        T    paw PP                                                                      
   EAUG   =  536.979                                                                                
   DEXC   =    0.000                                                                                
   RMAX   =    2.858    core radius for proj-oper                                                   
   RAUG   =    1.300    factor for augmentation sphere                                              
   RDEP   =    2.921    radius for radial grids                                                     
   RDEPT  =    2.247    core radius for aug-charge                                                  
                                                                                                    
   Atomic configuration                                                                             
   18 entries                                                                                       
     n  l   j            E        occ.                                                              
     1  0  0.50   -112985.5190   2.0000                                                             
     2  0  0.50    -21035.6541   2.0000                                                             
     2  1  1.50    -17527.8639   6.0000                                                             
     3  0  0.50     -5294.0126   2.0000                                                             
     3  1  1.50     -4318.2192   6.0000                                                             
     3  2  2.50     -3460.9455  10.0000                                                             
     4  0  0.50     -1342.3530   2.0000                                                             
     4  1  1.50     -1023.6497   6.0000                                                             
     4  2  2.50      -699.1199  10.0000                                                             
     4  3  3.50      -353.3721  14.0000                                                             
     5  0  0.50      -298.9475   2.0000                                                             
     5  1  1.50      -201.1573   6.0000                                                             
     5  2  2.50       -97.1791  10.0000                                                             
     6  0  0.50       -48.3074   2.0000                                                             
     7  0  0.50        -4.5039   2.0000                                                             
     6  1  1.50       -24.3672   6.0000                                                             
     6  2  1.50        -3.1149   2.0000                                                             
     5  3  2.50        -5.1513   1.0000                                                             
   Description                                                                                      
     l       E           TYP  RCUT    TYP  RCUT                                                     
     0    -48.3074378     23  2.800                                                                 
     0     -4.5039177     23  2.800                                                                 
     1    -24.3672020     23  2.500                                                                 
     1    -25.7277846     23  2.500                                                                 
     2     -3.1148861     23  2.500                                                                 
     2      1.7959667     23  2.500                                                                 
     3     -5.1512774     23  2.800                                                                 
     3     -6.5118600     23  2.800                                                                 
  local pseudopotential read in
  partial core-charges read in
  partial kinetic energy density read in
  atomic valenz-charges read in
  non local Contribution for L=           0  read in
    real space projection operators read in
  non local Contribution for L=           0  read in
    real space projection operators read in
  non local Contribution for L=           1  read in
    real space projection operators read in
  non local Contribution for L=           1  read in
    real space projection operators read in
  non local Contribution for L=           2  read in
    real space projection operators read in
  non local Contribution for L=           2  read in
    real space projection operators read in
  non local Contribution for L=           3  read in
    real space projection operators read in
  non local Contribution for L=           3  read in
    real space projection operators read in
    PAW grid and wavefunctions read in
 
   number of l-projection  operators is LMAX  =           8
   number of lm-projection operators is LMMAX =          32
 
 -----------------------------------------------------------------------------
|                                                                             |
|               ----> ADVICE to this user running VASP <----                  |
|                                                                             |
|     You have a (more or less) 'large supercell' and for larger cells it     |
|     might be more efficient to use real-space projection operators.         |
|     Therefore, try LREAL= Auto in the INCAR file.                           |
|     Mind: For very accurate calculation, you might also keep the            |
|     reciprocal projection scheme (i.e. LREAL=.FALSE.).                      |
|                                                                             |
 -----------------------------------------------------------------------------

  PAW_PBE C 08Apr2002                   :
 energy of atom  1       EATOM= -147.1560
 kinetic energy error for atom=    0.0545 (will be added to EATOM!!)
  PAW_PBE Pa 07Sep2000                  :
 energy of atom  2       EATOM=-1180.0855
 kinetic energy error for atom=    0.0045 (will be added to EATOM!!)
 
 
 POSCAR: 3D\Atomistic
  positions in direct lattice
  velocities in cartesian coordinates
 exchange correlation table for  LEXCH =        8
   RHO(1)=    0.500       N(1)  =     2000
   RHO(2)=  100.500       N(2)  =     4000
 


--------------------------------------------------------------------------------------------------------


 ion  position               nearest neighbor table
   1  0.000  0.000  1.000-  72 1.53   6 1.53 163 1.53 197 1.53
   2  0.000  0.167  0.166-  21 1.53   6 1.53  24 1.53   7 1.53
   3  0.167  0.000  0.166-   5 1.53  56 1.53  55 1.53   6 1.53
   4  0.167  0.167  1.000-   6 1.53 149 1.53   8 1.53 147 1.53
   5  0.250  0.084  0.249-  81 1.53   3 1.53  10 1.53  76 1.53
   6  0.083  0.084  0.083-   4 1.53   2 1.53   1 1.53   3 1.53
   7  0.083  0.250  0.250-  76 1.53  97 1.53  27 1.53   2 1.53
   8  0.250  0.250  0.083-  33 1.53  10 1.53  27 1.53   4 1.53
   9  0.333  0.001  0.000- 205 1.53  14 1.53 147 1.53  56 1.53
  10  0.333  0.166  0.166-  15 1.53  14 1.53   8 1.53   5 1.53
  11  0.500  0.002  0.165-  63 1.52  14 1.52  13 1.54  64 1.54
  12  0.500  0.166  0.000- 157 1.52  14 1.52 155 1.53  16 1.53
  13  0.584  0.084  0.249-  18 1.53  89 1.53  84 1.53  11 1.54
  14  0.417  0.084  0.083-  11 1.52  12 1.52  10 1.53   9 1.53
  15  0.417  0.249  0.249- 105 1.52  10 1.53  84 1.53  35 1.54
  16  0.584  0.250  0.083-  35 1.53  12 1.53  18 1.53  41 1.53
  17  0.667  0.000  1.000-  64 1.53 155 1.53 213 1.53  22 1.53
  18  0.667  0.167  0.166-  13 1.53  16 1.53  23 1.53  22 1.53
  19  0.834  0.000  0.166-  71 1.53  72 1.53  21 1.53  22 1.53
  20  0.834  0.167  1.000-  22 1.53 163 1.53  24 1.53 165 1.53
  21  0.917  0.084  0.250-   2 1.53  92 1.53  73 1.53  19 1.53
  22  0.750  0.084  0.083-  20 1.53  18 1.53  17 1.53  19 1.53
  23  0.750  0.250  0.250- 112 1.53  18 1.53  92 1.53  43 1.53
  24  0.917  0.250  0.083-  25 1.53   2 1.53  20 1.53  43 1.53
  25  0.000  0.333  1.000-  24 1.53 187 1.53  30 1.53 149 1.53
  26  1.000  0.500  0.166-  31 1.53  48 1.53  30 1.53  45 1.53
  27  0.167  0.333  0.166-  29 1.53   8 1.53  30 1.53   7 1.53
  28  0.166  0.500  0.000-  30 1.53 171 1.53  32 1.53 173 1.54
  29  0.250  0.417  0.249-  27 1.53  34 1.54 100 1.54 105 1.54
  30  0.083  0.417  0.083-  28 1.53  26 1.53  27 1.53  25 1.53
  31  0.082  0.583  0.249- 100 1.52  26 1.53 120 1.53  51 1.54
  32  0.250  0.584  0.083-  57 1.53  28 1.53  51 1.53  34 1.54
  33  0.333  0.333  0.000-   8 1.53 171 1.53  38 1.53 157 1.54
  34  0.333  0.500  0.166-  29 1.54  32 1.54  38 1.54  39 1.54
  35  0.500  0.332  0.165-  37 1.52  16 1.53  38 1.53  15 1.54
  36  0.500  0.500  0.000-  38 1.53 179 1.53 181 1.53  40 1.53
  37  0.584  0.415  0.248- 108 1.52  35 1.52 112 1.54  42 1.54
  38  0.417  0.416  0.083-  36 1.53  33 1.53  35 1.53  34 1.54
  39  0.417  0.584  0.249-  59 1.53  34 1.54 108 1.54 128 1.54
  40  0.584  0.583  0.083-  65 1.53  42 1.53  59 1.53  36 1.53
  41  0.667  0.333  0.000- 179 1.53 165 1.53  16 1.53  46 1.53
  42  0.668  0.500  0.166-  46 1.53  40 1.53  47 1.54  37 1.54
  43  0.834  0.333  0.166-  46 1.53  45 1.53  23 1.53  24 1.53
  44  0.834  0.500  0.000- 189 1.53  48 1.53 187 1.53  46 1.53
  45  0.917  0.417  0.249- 115 1.53  43 1.53  26 1.53  97 1.53
  46  0.751  0.417  0.083-  42 1.53  43 1.53  44 1.53  41 1.53
  47  0.753  0.584  0.247-  67 1.52 135 1.52 115 1.54  42 1.54
  48  0.917  0.584  0.083-  67 1.52  49 1.52  44 1.53  26 1.53
  49  1.000  0.667  0.000- 173 1.52  48 1.52 211 1.53  54 1.53
  50  0.000  0.834  0.166-  69 1.53  54 1.53  55 1.53  72 1.53
  51  0.166  0.667  0.165-  53 1.52  54 1.53  32 1.53  31 1.54
  52  0.167  0.834  0.000- 195 1.53 197 1.53  54 1.53  56 1.53
  53  0.248  0.750  0.248- 128 1.52  51 1.52 123 1.54  58 1.54
  54  0.083  0.750  0.083-  51 1.53  49 1.53  50 1.53  52 1.53
  55  0.083  0.917  0.250- 123 1.53  73 1.53  50 1.53   3 1.53
  56  0.250  0.917  0.083-  58 1.53   3 1.53   9 1.53  52 1.53
  57  0.333  0.667  0.000-  32 1.53 195 1.53 181 1.53  62 1.53
  58  0.333  0.834  0.166-  56 1.53  62 1.53  63 1.54  53 1.54
  59  0.501  0.667  0.166-  39 1.53  40 1.53  62 1.53  61 1.53
  60  0.500  0.834  1.000-  62 1.53  64 1.53 205 1.53 203 1.54
  61  0.584  0.751  0.248-  66 1.53  59 1.53 135 1.54 130 1.54
  62  0.417  0.750  0.083-  60 1.53  58 1.53  59 1.53  57 1.53
  63  0.418  0.920  0.247-  11 1.52 130 1.52  58 1.54  81 1.54
  64  0.584  0.917  0.083-  17 1.53  66 1.53  60 1.53  11 1.54
  65  0.667  0.667  1.000-  40 1.53  70 1.53 189 1.53 203 1.54
  66  0.667  0.834  0.166-  61 1.53  70 1.53  64 1.53  71 1.54
  67  0.835  0.667  0.165-  47 1.52  48 1.52  70 1.54  69 1.54
  68  0.834  0.834  1.000-  70 1.53 211 1.53 213 1.53  72 1.53
  69  0.917  0.750  0.249-  50 1.53 138 1.53 120 1.53  67 1.54
  70  0.751  0.750  0.083-  68 1.53  66 1.53  65 1.53  67 1.54
  71  0.751  0.917  0.249-  19 1.53 138 1.54  66 1.54  89 1.54
  72  0.917  0.917  0.083-   1 1.53  68 1.53  50 1.53  19 1.53
  73  0.000  0.000  0.333- 142 1.53  78 1.53  55 1.53  21 1.53
  74  1.000  0.166  0.500-  79 1.52  93 1.52  78 1.53  96 1.53
  75  0.166  0.001  0.500- 127 1.52  78 1.53  77 1.53 126 1.54
  76  0.167  0.167  0.333-  80 1.53   7 1.53  78 1.53   5 1.53
  77  0.250  0.084  0.583-  82 1.53 146 1.53  75 1.53 151 1.54
  78  0.083  0.084  0.416-  75 1.53  74 1.53  73 1.53  76 1.53
  79  0.082  0.249  0.583-  99 1.52  74 1.52 146 1.54 167 1.54
  80  0.250  0.249  0.416-  76 1.53  82 1.53  99 1.54 105 1.54
  81  0.333  0.001  0.332-   5 1.53  86 1.53  63 1.54 127 1.54
  82  0.333  0.167  0.500-  77 1.53  80 1.53  87 1.53  86 1.53
  83  0.501  0.001  0.499- 133 1.53  85 1.53  86 1.53 134 1.53
  84  0.500  0.167  0.333-  86 1.53  13 1.53  15 1.53  88 1.54
  85  0.584  0.084  0.583-  90 1.53 159 1.53  83 1.53 154 1.53
  86  0.417  0.084  0.416-  84 1.53  81 1.53  83 1.53  82 1.53
  87  0.416  0.250  0.584- 107 1.53  82 1.53 154 1.53 175 1.53
  88  0.584  0.250  0.416- 112 1.54  84 1.54  90 1.54 107 1.54
  89  0.667  0.001  0.333- 134 1.53  94 1.53  13 1.53  71 1.54
  90  0.667  0.167  0.500-  85 1.53  94 1.53  95 1.53  88 1.54
  91  0.835  0.002  0.500- 141 1.52  93 1.52  94 1.54 142 1.54
  92  0.834  0.167  0.333-  94 1.53  96 1.53  23 1.53  21 1.53
  93  0.917  0.084  0.583-  91 1.52  74 1.52 162 1.53 143 1.53
  94  0.751  0.084  0.416-  92 1.53  89 1.53  90 1.53  91 1.54
  95  0.751  0.249  0.583- 183 1.52 162 1.53  90 1.53 114 1.54
  96  0.917  0.250  0.416- 114 1.53  74 1.53  92 1.53  97 1.53
  97  1.000  0.333  0.333- 102 1.53   7 1.53  96 1.53  45 1.53
  98  1.000  0.500  0.500- 116 1.53 102 1.53 103 1.53 119 1.53
  99  0.164  0.331  0.500-  79 1.52 101 1.52  80 1.54 102 1.54
 100  0.165  0.500  0.331- 104 1.52  31 1.52  29 1.54 102 1.54
 101  0.247  0.413  0.584- 106 1.47  99 1.52 175 1.54 170 1.54
 102  0.083  0.416  0.416-  97 1.53  98 1.53  99 1.54 100 1.54
 103  0.083  0.583  0.584- 122 1.53 191 1.53  98 1.53 170 1.53
 104  0.247  0.582  0.415- 106 1.52 100 1.52 122 1.54 128 1.58 215 2.66
 105  0.333  0.332  0.331- 110 1.52  15 1.52  29 1.54  80 1.54
 106  0.320  0.486  0.493- 101 1.47 104 1.52 110 1.52 215 2.15
 107  0.500  0.332  0.500-  87 1.53  88 1.54 109 1.54 110 1.54
 108  0.502  0.499  0.330- 111 1.52  37 1.52  39 1.54 110 1.58 215 2.66
 109  0.585  0.413  0.585- 178 1.52 183 1.52 107 1.54 113 1.58 215 2.66
 110  0.415  0.413  0.415- 106 1.52 105 1.52 107 1.54 108 1.58 215 2.66
 111  0.597  0.576  0.403- 135 1.47 113 1.52 108 1.52 215 2.15
 112  0.667  0.333  0.333-  23 1.53  88 1.54  37 1.54 117 1.54
 113  0.670  0.499  0.498- 111 1.52 117 1.52 118 1.54 109 1.58 215 2.66
 114  0.835  0.332  0.500- 117 1.52  96 1.53 116 1.53  95 1.54
 115  0.834  0.500  0.332-  45 1.53 119 1.53  47 1.54 117 1.54
 116  0.917  0.416  0.583-  98 1.53 167 1.53 114 1.53 186 1.54
 117  0.752  0.415  0.416- 113 1.52 114 1.52 112 1.54 115 1.54
 118  0.751  0.584  0.583- 137 1.53 186 1.54 113 1.54 207 1.54
 119  0.917  0.583  0.416- 120 1.53 115 1.53 137 1.53  98 1.53
 120  0.000  0.667  0.333- 119 1.53  69 1.53  31 1.53 125 1.54
 121  0.000  0.834  0.500- 139 1.53 142 1.53 126 1.53 125 1.54
 122  0.166  0.666  0.500- 103 1.53 125 1.54 104 1.54 124 1.54
 123  0.166  0.834  0.333-  55 1.53 125 1.54 127 1.54  53 1.54
 124  0.247  0.752  0.585- 199 1.52 194 1.52 122 1.54 129 1.58 215 2.66
 125  0.083  0.750  0.416- 123 1.54 121 1.54 120 1.54 122 1.54
 126  0.082  0.918  0.583- 194 1.52 143 1.53 121 1.53  75 1.54
 127  0.248  0.919  0.416- 129 1.52  75 1.52 123 1.54  81 1.54
 128  0.332  0.669  0.330- 132 1.52  53 1.52  39 1.54 104 1.58 215 2.66
 129  0.332  0.837  0.498- 132 1.52 127 1.52 133 1.54 124 1.58 215 2.66
 130  0.501  0.837  0.329- 132 1.47  63 1.52  61 1.54 134 1.54
 131  0.597  0.764  0.590- 136 1.47 207 1.52 202 1.52 215 2.15
 132  0.410  0.764  0.403- 130 1.47 128 1.52 129 1.52 215 2.15
 133  0.417  0.918  0.583-  83 1.53 151 1.54 202 1.54 129 1.54
 134  0.584  0.918  0.416-  89 1.53  83 1.53 136 1.54 130 1.54
 135  0.671  0.668  0.329- 111 1.47  47 1.52 140 1.54  61 1.54
 136  0.671  0.837  0.499- 131 1.47 141 1.52 140 1.54 134 1.54
 137  0.834  0.667  0.499- 118 1.53 119 1.53 139 1.53 140 1.53
 138  0.834  0.834  0.333- 140 1.53  69 1.53 142 1.53  71 1.54
 139  0.917  0.750  0.583- 121 1.53 210 1.53 137 1.53 191 1.53
 140  0.752  0.751  0.416- 138 1.53 137 1.53 135 1.54 136 1.54
 141  0.753  0.920  0.582-  91 1.52 136 1.52 210 1.54 159 1.54
 142  0.917  0.917  0.416-  73 1.53 138 1.53 121 1.53  91 1.54
 143  1.000  0.001  0.667- 126 1.53  93 1.53 148 1.53 214 1.53
 144  0.000  0.167  0.833- 163 1.53 149 1.53 166 1.53 148 1.53
 145  0.167  0.000  0.833- 198 1.53 147 1.53 148 1.53 197 1.53
 146  0.166  0.166  0.667- 148 1.53 150 1.53  77 1.53  79 1.54
 147  0.250  0.083  0.917- 152 1.53   9 1.53 145 1.53   4 1.53
 148  0.083  0.083  0.750- 146 1.53 143 1.53 145 1.53 144 1.53
 149  0.083  0.250  0.917- 169 1.53   4 1.53 144 1.53  25 1.53
 150  0.250  0.249  0.750- 175 1.53 152 1.53 146 1.53 169 1.54
 151  0.333  0.001  0.667- 198 1.54  77 1.54 156 1.54 133 1.54
 152  0.333  0.166  0.834- 147 1.53 150 1.53 156 1.53 157 1.54
 153  0.500  0.001  0.834- 206 1.52 155 1.53 156 1.53 205 1.54
 154  0.500  0.167  0.667- 156 1.53 158 1.53  87 1.53  85 1.53
 155  0.584  0.084  0.917- 153 1.53  12 1.53  17 1.53 160 1.53
 156  0.417  0.084  0.750- 154 1.53 152 1.53 153 1.53 151 1.54
 157  0.417  0.249  0.918- 177 1.52  12 1.52 152 1.54  33 1.54
 158  0.584  0.249  0.750- 160 1.53 154 1.53 177 1.54 183 1.54
 159  0.668  0.001  0.667- 164 1.53  85 1.53 141 1.54 206 1.54
 160  0.667  0.167  0.833- 158 1.53 165 1.53 155 1.53 164 1.53
 161  0.834  0.000  0.833- 164 1.53 214 1.53 213 1.53 163 1.53
 162  0.834  0.166  0.667-  95 1.53  93 1.53 166 1.53 164 1.53
 163  0.917  0.084  0.917- 144 1.53  20 1.53   1 1.53 161 1.53
 164  0.751  0.084  0.750- 159 1.53 161 1.53 162 1.53 160 1.53
 165  0.750  0.250  0.917- 160 1.53  41 1.53 185 1.53  20 1.53
 166  0.917  0.250  0.750- 167 1.53 162 1.53 185 1.53 144 1.53
 167  1.000  0.333  0.667- 166 1.53 172 1.53 116 1.53  79 1.54
 168  1.000  0.500  0.834- 187 1.53 172 1.53 190 1.53 173 1.54
 169  0.166  0.333  0.834- 149 1.53 172 1.54 171 1.54 150 1.54
 170  0.165  0.499  0.667- 172 1.53 103 1.53 101 1.54 174 1.54
 171  0.250  0.416  0.917- 176 1.53  33 1.53  28 1.53 169 1.54
 172  0.083  0.416  0.750- 170 1.53 167 1.53 168 1.53 169 1.54
 173  0.082  0.583  0.918- 193 1.52  49 1.52  28 1.54 168 1.54
 174  0.247  0.583  0.753- 199 1.47 193 1.52 176 1.54 170 1.54
 175  0.333  0.332  0.667- 150 1.53  87 1.53 180 1.54 101 1.54
 176  0.333  0.499  0.835- 171 1.53 181 1.53 180 1.54 174 1.54
 177  0.500  0.331  0.836- 157 1.52 180 1.52 158 1.54 179 1.54
 178  0.507  0.486  0.680- 180 1.47 182 1.52 109 1.52 215 2.15
 179  0.584  0.416  0.917-  41 1.53  36 1.53 177 1.54 184 1.54
 180  0.416  0.413  0.753- 178 1.47 177 1.52 175 1.54 176 1.54
 181  0.416  0.583  0.917- 201 1.53  57 1.53  36 1.53 176 1.53
 182  0.585  0.582  0.753- 178 1.52 184 1.52 201 1.54 207 1.58 215 2.66
 183  0.669  0.332  0.667- 109 1.52  95 1.52 188 1.54 158 1.54
 184  0.669  0.500  0.835- 182 1.52 189 1.52 188 1.54 179 1.54
 185  0.834  0.333  0.833- 188 1.53 166 1.53 187 1.53 165 1.53
 186  0.834  0.500  0.667- 188 1.54 190 1.54 116 1.54 118 1.54
 187  0.917  0.417  0.917- 168 1.53  44 1.53 185 1.53  25 1.53
 188  0.751  0.417  0.750- 185 1.53 186 1.54 184 1.54 183 1.54
 189  0.751  0.583  0.918- 184 1.52  44 1.53  65 1.53 209 1.54
 190  0.917  0.584  0.750- 191 1.53 168 1.53 209 1.53 186 1.54
 191  1.000  0.667  0.667- 190 1.53 196 1.53 103 1.53 139 1.53
 192  1.000  0.834  0.833- 196 1.53 197 1.53 211 1.53 214 1.53
 193  0.164  0.666  0.836- 173 1.52 174 1.52 195 1.54 196 1.54
 194  0.165  0.836  0.667- 124 1.52 126 1.52 198 1.54 196 1.54
 195  0.250  0.750  0.917-  52 1.53  57 1.53 193 1.54 200 1.54
 196  0.083  0.750  0.750- 192 1.53 191 1.53 193 1.54 194 1.54
 197  0.083  0.917  0.917-  52 1.53 192 1.53 145 1.53   1 1.53
 198  0.250  0.918  0.750- 145 1.53 151 1.54 194 1.54 200 1.54
 199  0.320  0.674  0.680- 174 1.47 124 1.52 204 1.52 215 2.15
 200  0.333  0.836  0.835- 204 1.52 205 1.52 198 1.54 195 1.54
 201  0.500  0.666  0.834- 181 1.53 203 1.54 182 1.54 204 1.54
 202  0.502  0.837  0.668- 131 1.52 206 1.52 133 1.54 204 1.58 215 2.66
 203  0.584  0.750  0.917- 208 1.54  60 1.54  65 1.54 201 1.54
 204  0.415  0.752  0.753- 199 1.52 200 1.52 201 1.54 202 1.58 215 2.66
 205  0.417  0.918  0.918- 200 1.52   9 1.53  60 1.53 153 1.54
 206  0.584  0.919  0.752- 202 1.52 153 1.52 208 1.54 159 1.54
 207  0.670  0.669  0.668- 131 1.52 212 1.52 118 1.54 182 1.58 215 2.66
 208  0.667  0.834  0.834- 213 1.53 203 1.54 206 1.54 212 1.54
 209  0.835  0.667  0.834- 212 1.52 211 1.53 190 1.53 189 1.54
 210  0.834  0.834  0.667- 214 1.53 139 1.53 141 1.54 212 1.54
 211  0.917  0.750  0.917- 209 1.53  49 1.53  68 1.53 192 1.53
 212  0.752  0.750  0.752- 207 1.52 209 1.52 208 1.54 210 1.54
 213  0.750  0.917  0.917- 208 1.53  17 1.53  68 1.53 161 1.53
 214  0.917  0.917  0.750- 210 1.53 161 1.53 143 1.53 192 1.53
 215  0.459  0.625  0.541- 111 2.15 131 2.15 178 2.15 132 2.15 106 2.15 199 2.15 109 2.66 110 2.66
                           113 2.66 108 2.66 182 2.66 207 2.66 104 2.66 128 2.66 204 2.66 202 2.66
 

IMPORTANT INFORMATION: All symmetrisations will be switched off!
NOSYMM: (Re-)initialisation of all symmetry stuff for point group C_1.


----------------------------------------------------------------------------------------

                                     Primitive cell                                     

  volume of cell :    1202.8529

  direct lattice vectors                    reciprocal lattice vectors
    10.635000229  0.000000000  0.000000000     0.094029147  0.000000000  0.000000000
     0.000000000 10.635000229  0.000000000     0.000000000  0.094029147  0.000000000
     0.000000000  0.000000000 10.635000229     0.000000000  0.000000000  0.094029147

  length of vectors
    10.635000229 10.635000229 10.635000229     0.094029147  0.094029147  0.094029147

  position of ions in fractional coordinates (direct lattice)
     0.000178694  0.000293258  0.999821287
     0.000178674  0.166845473  0.166373791
     0.166729112  0.000273727  0.166393954
     0.166672968  0.166781359  0.999885827
     0.249931321  0.083715699  0.249454158
     0.083429912  0.083540833  0.083126299
     0.083446585  0.250112653  0.249673763
     0.249955622  0.249959582  0.083176779
     0.333376799  0.000731712  0.000184048
     0.333377179  0.166482848  0.165935485
     0.500282308  0.001600364  0.165066750
     0.500176287  0.166452018  0.000215264
     0.583812783  0.083950055  0.249298137
     0.416877033  0.083926434  0.082741014
     0.416753849  0.249103163  0.248656711
     0.583680403  0.249644169  0.082765524
     0.667103022  0.000424710  0.999774640
     0.667102889  0.166891447  0.166241688
     0.833731749  0.000397874  0.166268358
     0.833626049  0.166845496  0.999821289
     0.916932159  0.083598940  0.249621641
     0.750378356  0.083598975  0.083067851
     0.750445917  0.249927118  0.249553985
     0.916873558  0.250097267  0.083126402
     0.000114639  0.333340039  0.999885191
     0.999816855  0.500043759  0.165934570
     0.166611487  0.333278079  0.166205404
     0.166344804  0.499910780  0.000232493
     0.249915216  0.416581205  0.249053865
     0.083292945  0.416621721  0.083176011
     0.082437455  0.583420589  0.248656324
     0.249827506  0.583516401  0.083015699
     0.333243873  0.333011899  0.000232997
     0.333466778  0.500132981  0.166097062
     0.500315741  0.332374764  0.165382054
     0.500234333  0.499911522  0.000059623
     0.583781093  0.414833520  0.247787845
     0.416849846  0.416493170  0.083015488
     0.417435160  0.584101734  0.248571423
     0.583813089  0.583491610  0.082871684
     0.667122260  0.333169353  0.000000850
     0.667549121  0.500036303  0.165612692
     0.833606682  0.333396987  0.166393011
     0.834065203  0.500043830  0.000182998
     0.917048795  0.416597992  0.249453506
     0.750546224  0.416598030  0.082951038
     0.752873547  0.584169521  0.247126434
     0.917260158  0.583543386  0.082739649
     0.999785795  0.666843221  0.000214038
     0.000225409  0.833770279  0.166242170
     0.165708617  0.666981593  0.165381665
     0.166502045  0.833789503  0.000001927
     0.248167421  0.750448296  0.247787825
     0.082977300  0.750347686  0.082765780
     0.083260860  0.917112456  0.249554617
     0.249931047  0.917213485  0.082951634
     0.333245323  0.666900593  0.000060038
     0.333370521  0.834215506  0.165613329
     0.500715220  0.667380986  0.165847014
     0.500221847  0.833891010  0.999922995
     0.584422941  0.751088534  0.248409622
     0.416824174  0.750479611  0.082872191
     0.417502697  0.919539002  0.247127853
     0.583812997  0.917369015  0.082716575
     0.667224427  0.666887594  0.999922429
     0.667403263  0.834068825  0.165685987
     0.834934185  0.666949609  0.165065658
     0.833757870  0.833770239  0.999774785
     0.917283996  0.750480127  0.249297488
     0.750702395  0.750480062  0.082716077
     0.750578921  0.917244773  0.249421239
     0.916932049  0.917045102  0.083067986
     0.000225538  0.000424617  0.332896866
     0.999784878  0.166452323  0.499823649
     0.165708306  0.001284714  0.499684917
     0.166502145  0.166665046  0.332877880
     0.249827094  0.083651542  0.583151270
     0.082976846  0.083901474  0.416319873
     0.082111439  0.248778370  0.583218511
     0.249507682  0.249335451  0.416311232
     0.333369965  0.001053109  0.332451813
     0.333245343  0.166606161  0.499765758
     0.500714522  0.000818249  0.499285696
     0.500221632  0.166743205  0.332776214
     0.583812424  0.083794323  0.583175578
     0.416824289  0.083794212  0.416187593
     0.416334654  0.249584686  0.583665327
     0.583589100  0.249835301  0.416410858
     0.667402664  0.000979568  0.332597663
     0.667223859  0.166743334  0.499778599
     0.834933327  0.001600588  0.499717502
     0.833758264  0.166891428  0.332897037
     0.917259125  0.083926772  0.583123064
     0.750701906  0.083950164  0.416187070
     0.751343373  0.249103488  0.583246129
     0.917234392  0.249644328  0.416319294
     0.999999030  0.333169339  0.332877590
     0.999940554  0.499911537  0.499765726
     0.164178648  0.330844931  0.500441562
     0.164842853  0.499941276  0.331102556
     0.246535987  0.413202829  0.584083225
     0.082668706  0.416173365  0.416310675
     0.082918094  0.583001897  0.583664895
     0.246822766  0.581654327  0.415064584
     0.333275722  0.331508873  0.331103498
     0.319671245  0.486337978  0.492716566
     0.499615821  0.332304715  0.500384221
     0.502055092  0.498791133  0.329764952
     0.584934960  0.413489794  0.585011404
     0.414988556  0.413489623  0.415064842
     0.597371512  0.576444079  0.402628518
     0.667145781  0.332790862  0.332854170
     0.670235006  0.498791405  0.497944948
     0.834617993  0.332374894  0.499684353
     0.834387297  0.500036511  0.332450801
     0.916984440  0.416493320  0.583149928
     0.752212351  0.414833486  0.416218714
     0.751428691  0.584101917  0.582564832
     0.917128441  0.583491619  0.416186733
     0.000077684  0.666887655  0.332775491
     0.000077238  0.833891159  0.499778316
     0.165638701  0.666281174  0.500384749
     0.166123068  0.833813740  0.332853385
     0.246822026  0.751602110  0.585012284
     0.083168911  0.750256536  0.416410107
     0.082436403  0.918010105  0.583246181
     0.248167697  0.918878279  0.416219229
     0.332123331  0.668722167  0.329765621
     0.332122416  0.836900465  0.497944950
     0.501135026  0.837178412  0.329487222
     0.597375544  0.764041768  0.590223627
     0.409776502  0.764042744  0.402623514
     0.417434619  0.918094518  0.582565560
     0.584422868  0.918256716  0.415577318
     0.670515202  0.667803714  0.329484940
     0.670513454  0.837178940  0.498864590
     0.834153246  0.667381222  0.499284762
     0.834314206  0.834069026  0.332596862
     0.917128038  0.750479809  0.583175694
     0.751590367  0.751088543  0.415577237
     0.752872465  0.919539331  0.582497313
     0.917283609  0.917369175  0.416186783
     0.999816064  0.000731951  0.666623184
     0.000114151  0.166781514  0.833326968
     0.166610921  0.000461000  0.833389158
     0.166344425  0.166434061  0.666756024
     0.249955792  0.083490476  0.916707154
     0.083292830  0.083490668  0.750044312
     0.083306792  0.249973053  0.916693287
     0.249642707  0.249403017  0.750357399
     0.333465509  0.000569447  0.666534575
     0.333243930  0.166433930  0.833655525
     0.500315254  0.001284644  0.834291898
     0.500234308  0.166606232  0.666754724
     0.583679932  0.083901532  0.917023135
     0.416848785  0.083651589  0.750173117
     0.416781118  0.248778361  0.917888555
     0.583688781  0.249335603  0.750492460
     0.667548339  0.001053251  0.666630226
     0.667122007  0.166665310  0.833497735
     0.833605929  0.000273904  0.833270691
     0.834064527  0.166483111  0.666622727
     0.916873631  0.083540806  0.916569932
     0.750545713  0.083715834  0.750068592
     0.750326213  0.250112824  0.916553359
     0.916823268  0.249959646  0.750044558
     0.999767033  0.333012005  0.666756085
     0.999767418  0.499910750  0.833655035
     0.166461678  0.333129511  0.833538115
     0.165471844  0.499287423  0.667379982
     0.249643634  0.416309618  0.917263766
     0.082736276  0.416309886  0.750356186
     0.082111259  0.583449503  0.917888742
     0.246537283  0.582585456  0.753462743
     0.332620464  0.332138872  0.667379361
     0.332619975  0.499287563  0.834528226
     0.499558561  0.330844865  0.835821438
     0.507283593  0.486338898  0.680327713
     0.583689236  0.416173340  0.917331127
     0.415916266  0.413202448  0.753464424
     0.416334972  0.583001789  0.917082017
     0.584935183  0.581654496  0.753177080
     0.668896653  0.331509071  0.666724257
     0.668897396  0.499941501  0.835157093
     0.833794572  0.333278258  0.833388404
     0.833902897  0.500133361  0.666532909
     0.916823854  0.416621637  0.916706976
     0.750945904  0.416581540  0.750084547
     0.751343683  0.583420598  0.917562455
     0.916984266  0.583516684  0.750172545
     0.999940197  0.666900599  0.666754719
     0.999998203  0.833789544  0.833497861
     0.164178611  0.666224601  0.835821433
     0.164842127  0.835563048  0.666725377
     0.249507632  0.750355404  0.917331929
     0.082668044  0.750355497  0.750492496
     0.083446172  0.916992872  0.916553936
     0.249913976  0.917613310  0.750086128
     0.319667261  0.673948525  0.680332636
     0.333274824  0.835562845  0.835158013
     0.499615380  0.666281275  0.834361553
     0.502055054  0.836900694  0.667877550
     0.583589665  0.750256343  0.916831130
     0.414987823  0.751602088  0.753178002
     0.416753783  0.918010028  0.917563817
     0.583780684  0.918878302  0.751832484
     0.670234563  0.668722130  0.667876355
     0.667146383  0.833813558  0.833876770
     0.834618299  0.666981691  0.834291460
     0.834386820  0.834215732  0.666629468
     0.917234182  0.750347803  0.917022529
     0.752212408  0.750448404  0.751832801
     0.750445409  0.917112573  0.916739258
     0.917048337  0.917213620  0.750068911
     0.458526922  0.625187644  0.541474863

  ion indices of the primitive-cell ions
   primitive index   ion index
                 1           1
                 2           2
                 3           3
                 4           4
                 5           5
                 6           6
                 7           7
                 8           8
                 9           9
                10          10
                11          11
                12          12
                13          13
                14          14
                15          15
                16          16
                17          17
                18          18
                19          19
                20          20
                21          21
                22          22
                23          23
                24          24
                25          25
                26          26
                27          27
                28          28
                29          29
                30          30
                31          31
                32          32
                33          33
                34          34
                35          35
                36          36
                37          37
                38          38
                39          39
                40          40
                41          41
                42          42
                43          43
                44          44
                45          45
                46          46
                47          47
                48          48
                49          49
                50          50
                51          51
                52          52
                53          53
                54          54
                55          55
                56          56
                57          57
                58          58
                59          59
                60          60
                61          61
                62          62
                63          63
                64          64
                65          65
                66          66
                67          67
                68          68
                69          69
                70          70
                71          71
                72          72
                73          73
                74          74
                75          75
                76          76
                77          77
                78          78
                79          79
                80          80
                81          81
                82          82
                83          83
                84          84
                85          85
                86          86
                87          87
                88          88
                89          89
                90          90
                91          91
                92          92
                93          93
                94          94
                95          95
                96          96
                97          97
                98          98
                99          99
               100         100
               101         101
               102         102
               103         103
               104         104
               105         105
               106         106
               107         107
               108         108
               109         109
               110         110
               111         111
               112         112
               113         113
               114         114
               115         115
               116         116
               117         117
               118         118
               119         119
               120         120
               121         121
               122         122
               123         123
               124         124
               125         125
               126         126
               127         127
               128         128
               129         129
               130         130
               131         131
               132         132
               133         133
               134         134
               135         135
               136         136
               137         137
               138         138
               139         139
               140         140
               141         141
               142         142
               143         143
               144         144
               145         145
               146         146
               147         147
               148         148
               149         149
               150         150
               151         151
               152         152
               153         153
               154         154
               155         155
               156         156
               157         157
               158         158
               159         159
               160         160
               161         161
               162         162
               163         163
               164         164
               165         165
               166         166
               167         167
               168         168
               169         169
               170         170
               171         171
               172         172
               173         173
               174         174
               175         175
               176         176
               177         177
               178         178
               179         179
               180         180
               181         181
               182         182
               183         183
               184         184
               185         185
               186         186
               187         187
               188         188
               189         189
               190         190
               191         191
               192         192
               193         193
               194         194
               195         195
               196         196
               197         197
               198         198
               199         199
               200         200
               201         201
               202         202
               203         203
               204         204
               205         205
               206         206
               207         207
               208         208
               209         209
               210         210
               211         211
               212         212
               213         213
               214         214
               215         215

----------------------------------------------------------------------------------------

 
 
 KPOINTS: 1 x 1 x 1 k-mesh (automatic generation o

Automatic generation of k-mesh.
 Grid dimensions read from file:
 generate k-points for:    1    1    1

 Generating k-lattice:

  Cartesian coordinates                     Fractional coordinates (reciprocal lattice)
     0.094029147  0.000000000  0.000000000     1.000000000  0.000000000  0.000000000
     0.000000000  0.094029147  0.000000000     0.000000000  1.000000000  0.000000000
     0.000000000  0.000000000  0.094029147     0.000000000  0.000000000  1.000000000

  Length of vectors
     0.094029147  0.094029147  0.094029147

  Shift w.r.t. Gamma in fractional coordinates (k-lattice)
     0.000000000  0.000000000  0.000000000

 
 Subroutine IBZKPT returns following result:
 ===========================================
 
 Found      1 irreducible k-points:
 
 Following reciprocal coordinates:
            Coordinates               Weight
  0.000000  0.000000  0.000000      1.000000
 
 Following cartesian coordinates:
            Coordinates               Weight
  0.000000  0.000000  0.000000      1.000000
 


--------------------------------------------------------------------------------------------------------




 Dimension of arrays:
   k-points           NKPTS =      1   k-points in BZ     NKDIM =      1   number of bands    NBANDS=    651
   number of dos      NEDOS =    301   number of ions     NIONS =    215
   non local maximal  LDIM  =      8   non local SUM 2l+1 LMDIM =     32
   total plane-waves  NPLWV = 343000
   max r-space proj   IRMAX =      1   max aug-charges    IRDMAX=  17079
   dimension x,y,z NGX =    70 NGY =   70 NGZ =   70
   dimension x,y,z NGXF=   140 NGYF=  140 NGZF=  140
   support grid    NGXF=   140 NGYF=  140 NGZF=  140
   ions per type =             214   1
   NGX,Y,Z   is equivalent  to a cutoff of  10.94, 10.94, 10.94 a.u.
   NGXF,Y,Z  is equivalent  to a cutoff of  21.88, 21.88, 21.88 a.u.

 SYSTEM =  unknown system                          
 POSCAR =  3D\Atomistic                            

 Startparameter for this run:
   NWRITE =      2    write-flag & timer
   PREC   = accura    normal or accurate (medium, high low for compatibility)
   ISTART =      1    job   : 0-new  1-cont  2-samecut
   ICHARG =      0    charge: 1-file 2-atom 10-const
   ISPIN  =      2    spin polarized calculation?
   LNONCOLLINEAR =      F non collinear calculations
   LSORBIT =      F    spin-orbit coupling
   INIWAV =      1    electr: 0-lowe 1-rand  2-diag
   LASPH  =      F    aspherical Exc in radial PAW
 Electronic Relaxation 1
   ENCUT  =  370.0 eV  27.19 Ry    5.21 a.u.  16.68 16.68 16.68*2*pi/ulx,y,z
   ENINI  =  370.0     initial cutoff
   ENAUG  =  740.0 eV  augmentation charge cutoff
   NELM   =     60;   NELMIN=  2; NELMDL=  0     # of ELM steps 
   EDIFF  = 0.1E-04   stopping-criterion for ELM
   LREAL  =      F    real-space projection
   NLSPLINE    = F    spline interpolate recip. space projectors
   LCOMPAT=      F    compatible to vasp.4.4
   GGA_COMPAT  = T    GGA compatible to vasp.4.4-vasp.4.6
   LMAXPAW     = -100 max onsite density
   LMAXMIX     =    6 max onsite mixed and CHGCAR
   VOSKOWN=      0    Vosko Wilk Nusair interpolation
   ROPT   =    0.00000   0.00000
 Ionic relaxation
   EDIFFG = -.1E-01   stopping-criterion for IOM
   NSW    =      0    number of steps for IOM
   NBLOCK =      1;   KBLOCK =      1    inner block; outer block 
   IBRION =     -1    ionic relax: 0-MD 1-quasi-New 2-CG
   NFREE  =      1    steps in history (QN), initial steepest desc. (CG)
   ISIF   =      1    stress and relaxation
   IWAVPR =     10    prediction:  0-non 1-charg 2-wave 3-comb
   ISYM   =      0    0-nonsym 1-usesym 2-fastsym
   LCORR  =      T    Harris-Foulkes like correction to forces

   POTIM  = 0.2000    time-step for ionic-motion
   TEIN   =    0.0    initial temperature
   TEBEG  =    0.0;   TEEND  =   0.0 temperature during run
   SMASS  =  -3.00    Nose mass-parameter (am)
   estimated Nose-frequenzy (Omega)   =  0.10E-29 period in steps = 0.31E+47 mass=  -0.258E-26a.u.
   SCALEE = 1.0000    scale energy and forces
   NPACO  =    256;   APACO  = 16.0  distance and # of slots for P.C.
   PSTRESS=    0.0 pullay stress

  Mass of Ions in am
   POMASS =  12.01229.00
  Ionic Valenz
   ZVAL   =   4.00 13.00
  Atomic Wigner-Seitz radii
   RWIGS  =  -1.00 -1.00
  virtual crystal weights 
   VCA    =   1.00  1.00
   NELECT =     869.0000    total number of electrons
   NUPDOWN=      -1.0000    fix difference up-down

 DOS related values:
   EMIN   =  10.00;   EMAX   =-10.00  energy-range for DOS
   EFERMI =   0.00
   ISMEAR =     0;   SIGMA  =   0.01  broadening in eV -4-tet -1-fermi 0-gaus

 Electronic relaxation 2 (details)
   IALGO  =     58    algorithm
   LDIAG  =      T    sub-space diagonalisation (order eigenvalues)
   LSUBROT=      F    optimize rotation matrix (better conditioning)
   TURBO    =      0    0=normal 1=particle mesh
   IRESTART =      0    0=no restart 2=restart with 2 vectors
   NREBOOT  =      0    no. of reboots
   NMIN     =      0    reboot dimension
   EREF     =   0.00    reference energy to select bands
   IMIX   =      4    mixing-type and parameters
     AMIX     =   0.40;   BMIX     =  1.00
     AMIX_MAG =   1.60;   BMIX_MAG =  1.00
     AMIN     =   0.10
     WC   =   100.;   INIMIX=   1;  MIXPRE=   1;  MAXMIX= -45

 Intra band minimization:
   WEIMIN = 0.0000     energy-eigenvalue tresh-hold
   EBREAK =  0.38E-08  absolut break condition
   DEPER  =   0.30     relativ break condition  

   TIME   =   0.40     timestep for ELM

  volume/ion in A,a.u.               =       5.59        37.75
  Fermi-wavevector in a.u.,A,eV,Ry     =   1.468962  2.775936 29.359326  2.157850
  Thomas-Fermi vector in A             =   2.584397
 
 Write flags
   LWAVE        =      T    write WAVECAR
   LDOWNSAMPLE  =      F    k-point downsampling of WAVECAR
   LCHARG       =      T    write CHGCAR
   LVTOT        =      F    write LOCPOT, total local potential
   LVHAR        =      F    write LOCPOT, Hartree potential only
   LELF         =      F    write electronic localiz. function (ELF)
   LORBIT       =      0    0 simple, 1 ext, 2 COOP (PROOUT), +10 PAW based schemes


 Dipole corrections
   LMONO  =      F    monopole corrections only (constant potential shift)
   LDIPOL =      F    correct potential (dipole corrections)
   IDIPOL =      0    1-x, 2-y, 3-z, 4-all directions 
   EPSILON=  1.0000000 bulk dielectric constant

 LDA+U is selected, type is set to LDAUTYPE =  1
   angular momentum for each species LDAUL =    -1    3
   U (eV)           for each species LDAUU =   0.0  3.5
   J (eV)           for each species LDAUJ =   0.0  1.0
 Exchange correlation treatment:
   GGA     =    PE    GGA type
   LEXCH   =     8    internal setting for exchange type
   VOSKOWN=      0    Vosko Wilk Nusair interpolation
   LHFCALC =     F    Hartree Fock is set to
   LHFONE  =     F    Hartree Fock one center treatment
   AEXX    =    0.0000 exact exchange contribution

 Linear response parameters
   LEPSILON=     F    determine dielectric tensor
   LRPA    =     F    only Hartree local field effects (RPA)
   LNABLA  =     F    use nabla operator in PAW spheres
   LVEL    =     F    velocity operator in full k-point grid
   LINTERFAST=   F  fast interpolation
   KINTER  =     0    interpolate to denser k-point grid
   CSHIFT  =0.1000    complex shift for real part using Kramers Kronig
   OMEGAMAX=  -1.0    maximum frequency
   DEG_THRESHOLD= 0.2000000E-02 threshold for treating states as degnerate
   RTIME   =   -0.100 relaxation time in fs
  (WPLASMAI=    0.000 imaginary part of plasma frequency in eV, 0.658/RTIME)
   DFIELD  = 0.0000000 0.0000000 0.0000000 field for delta impulse in time
 
 Orbital magnetization related:
   ORBITALMAG=     F  switch on orbital magnetization
   LCHIMAG   =     F  perturbation theory with respect to B field
   DQ        =  0.001000  dq finite difference perturbation B field
   LLRAUG    =     F  two centre corrections for induced B field



--------------------------------------------------------------------------------------------------------


 Static calculation
 charge density and potential will be updated during run
 spin polarized calculation
 Conjugate gradient for all bands (Freysoldt, et al. PRB 79, 241103 (2009))
 preconditioned conjugated gradient                                        
 perform sub-space diagonalisation
    before iterative eigenvector-optimisation
 modified Broyden-mixing scheme, WC =      100.0
 initial mixing is a Kerker type mixing with AMIX =  0.4000 and BMIX =      1.0000
 Hartree-type preconditioning will be used
 using additional bands          216
 reciprocal scheme for non local part
 use partial core corrections
 no Harris-corrections to forces 
 use gradient corrections 
 use of overlap-Matrix (Vanderbilt PP)
 Gauss-broadening in eV      SIGMA  =   0.01


--------------------------------------------------------------------------------------------------------


  energy-cutoff  :      370.00
  volume of cell :     1202.85
      direct lattice vectors                 reciprocal lattice vectors
    10.635000229  0.000000000  0.000000000     0.094029147  0.000000000  0.000000000
     0.000000000 10.635000229  0.000000000     0.000000000  0.094029147  0.000000000
     0.000000000  0.000000000 10.635000229     0.000000000  0.000000000  0.094029147

  length of vectors
    10.635000229 10.635000229 10.635000229     0.094029147  0.094029147  0.094029147


 
 old parameters found on file WAVECAR:
  energy-cutoff  :      370.00
  volume of cell :     1202.85
      direct lattice vectors                 reciprocal lattice vectors
    10.635000229  0.000000000  0.000000000     0.094029147  0.000000000  0.000000000
     0.000000000 10.635000229  0.000000000     0.000000000  0.094029147  0.000000000
     0.000000000  0.000000000 10.635000229     0.000000000  0.000000000  0.094029147

  length of vectors

 
 k-points in units of 2pi/SCALE and weight: 1 x 1 x 1 k-mesh (automatic generation o
   0.00000000  0.00000000  0.00000000       1.000
 
 k-points in reciprocal lattice and weights: 1 x 1 x 1 k-mesh (automatic generation o
   0.00000000  0.00000000  0.00000000       1.000
 
 position of ions in fractional coordinates (direct lattice) 
   0.00017869  0.00029326  0.99982129
   0.00017867  0.16684547  0.16637379
   0.16672911  0.00027373  0.16639395
   0.16667297  0.16678136  0.99988583
   0.24993132  0.08371570  0.24945416
   0.08342991  0.08354083  0.08312630
   0.08344658  0.25011265  0.24967376
   0.24995562  0.24995958  0.08317678
   0.33337680  0.00073171  0.00018405
   0.33337718  0.16648285  0.16593548
   0.50028231  0.00160036  0.16506675
   0.50017629  0.16645202  0.00021526
   0.58381278  0.08395005  0.24929814
   0.41687703  0.08392643  0.08274101
   0.41675385  0.24910316  0.24865671
   0.58368040  0.24964417  0.08276552
   0.66710302  0.00042471  0.99977464
   0.66710289  0.16689145  0.16624169
   0.83373175  0.00039787  0.16626836
   0.83362605  0.16684550  0.99982129
   0.91693216  0.08359894  0.24962164
   0.75037836  0.08359898  0.08306785
   0.75044592  0.24992712  0.24955399
   0.91687356  0.25009727  0.08312640
   0.00011464  0.33334004  0.99988519
   0.99981685  0.50004376  0.16593457
   0.16661149  0.33327808  0.16620540
   0.16634480  0.49991078  0.00023249
   0.24991522  0.41658120  0.24905387
   0.08329294  0.41662172  0.08317601
   0.08243745  0.58342059  0.24865632
   0.24982751  0.58351640  0.08301570
   0.33324387  0.33301190  0.00023300
   0.33346678  0.50013298  0.16609706
   0.50031574  0.33237476  0.16538205
   0.50023433  0.49991152  0.00005962
   0.58378109  0.41483352  0.24778785
   0.41684985  0.41649317  0.08301549
   0.41743516  0.58410173  0.24857142
   0.58381309  0.58349161  0.08287168
   0.66712226  0.33316935  0.00000085
   0.66754912  0.50003630  0.16561269
   0.83360668  0.33339699  0.16639301
   0.83406520  0.50004383  0.00018300
   0.91704880  0.41659799  0.24945351
   0.75054622  0.41659803  0.08295104
   0.75287355  0.58416952  0.24712643
   0.91726016  0.58354339  0.08273965
   0.99978580  0.66684322  0.00021404
   0.00022541  0.83377028  0.16624217
   0.16570862  0.66698159  0.16538167
   0.16650205  0.83378950  0.00000193
   0.24816742  0.75044830  0.24778782
   0.08297730  0.75034769  0.08276578
   0.08326086  0.91711246  0.24955462
   0.24993105  0.91721349  0.08295163
   0.33324532  0.66690059  0.00006004
   0.33337052  0.83421551  0.16561333
   0.50071522  0.66738099  0.16584701
   0.50022185  0.83389101  0.99992299
   0.58442294  0.75108853  0.24840962
   0.41682417  0.75047961  0.08287219
   0.41750270  0.91953900  0.24712785
   0.58381300  0.91736901  0.08271658
   0.66722443  0.66688759  0.99992243
   0.66740326  0.83406883  0.16568599
   0.83493419  0.66694961  0.16506566
   0.83375787  0.83377024  0.99977479
   0.91728400  0.75048013  0.24929749
   0.75070239  0.75048006  0.08271608
   0.75057892  0.91724477  0.24942124
   0.91693205  0.91704510  0.08306799
   0.00022554  0.00042462  0.33289687
   0.99978488  0.16645232  0.49982365
   0.16570831  0.00128471  0.49968492
   0.16650214  0.16666505  0.33287788
   0.24982709  0.08365154  0.58315127
   0.08297685  0.08390147  0.41631987
   0.08211144  0.24877837  0.58321851
   0.24950768  0.24933545  0.41631123
   0.33336996  0.00105311  0.33245181
   0.33324534  0.16660616  0.49976576
   0.50071452  0.00081825  0.49928570
   0.50022163  0.16674320  0.33277621
   0.58381242  0.08379432  0.58317558
   0.41682429  0.08379421  0.41618759
   0.41633465  0.24958469  0.58366533
   0.58358910  0.24983530  0.41641086
   0.66740266  0.00097957  0.33259766
   0.66722386  0.16674333  0.49977860
   0.83493333  0.00160059  0.49971750
   0.83375826  0.16689143  0.33289704
   0.91725913  0.08392677  0.58312306
   0.75070191  0.08395016  0.41618707
   0.75134337  0.24910349  0.58324613
   0.91723439  0.24964433  0.41631929
   0.99999903  0.33316934  0.33287759
   0.99994055  0.49991154  0.49976573
   0.16417865  0.33084493  0.50044156
   0.16484285  0.49994128  0.33110256
   0.24653599  0.41320283  0.58408322
   0.08266871  0.41617337  0.41631068
   0.08291809  0.58300190  0.58366490
   0.24682277  0.58165433  0.41506458
   0.33327572  0.33150887  0.33110350
   0.31967124  0.48633798  0.49271657
   0.49961582  0.33230471  0.50038422
   0.50205509  0.49879113  0.32976495
   0.58493496  0.41348979  0.58501140
   0.41498856  0.41348962  0.41506484
   0.59737151  0.57644408  0.40262852
   0.66714578  0.33279086  0.33285417
   0.67023501  0.49879140  0.49794495
   0.83461799  0.33237489  0.49968435
   0.83438730  0.50003651  0.33245080
   0.91698444  0.41649332  0.58314993
   0.75221235  0.41483349  0.41621871
   0.75142869  0.58410192  0.58256483
   0.91712844  0.58349162  0.41618673
   0.00007768  0.66688765  0.33277549
   0.00007724  0.83389116  0.49977832
   0.16563870  0.66628117  0.50038475
   0.16612307  0.83381374  0.33285338
   0.24682203  0.75160211  0.58501228
   0.08316891  0.75025654  0.41641011
   0.08243640  0.91801011  0.58324618
   0.24816770  0.91887828  0.41621923
   0.33212333  0.66872217  0.32976562
   0.33212242  0.83690047  0.49794495
   0.50113503  0.83717841  0.32948722
   0.59737554  0.76404177  0.59022363
   0.40977650  0.76404274  0.40262351
   0.41743462  0.91809452  0.58256556
   0.58442287  0.91825672  0.41557732
   0.67051520  0.66780371  0.32948494
   0.67051345  0.83717894  0.49886459
   0.83415325  0.66738122  0.49928476
   0.83431421  0.83406903  0.33259686
   0.91712804  0.75047981  0.58317569
   0.75159037  0.75108854  0.41557724
   0.75287247  0.91953933  0.58249731
   0.91728361  0.91736917  0.41618678
   0.99981606  0.00073195  0.66662318
   0.00011415  0.16678151  0.83332697
   0.16661092  0.00046100  0.83338916
   0.16634442  0.16643406  0.66675602
   0.24995579  0.08349048  0.91670715
   0.08329283  0.08349067  0.75004431
   0.08330679  0.24997305  0.91669329
   0.24964271  0.24940302  0.75035740
   0.33346551  0.00056945  0.66653457
   0.33324393  0.16643393  0.83365552
   0.50031525  0.00128464  0.83429190
   0.50023431  0.16660623  0.66675472
   0.58367993  0.08390153  0.91702313
   0.41684878  0.08365159  0.75017312
   0.41678112  0.24877836  0.91788855
   0.58368878  0.24933560  0.75049246
   0.66754834  0.00105325  0.66663023
   0.66712201  0.16666531  0.83349774
   0.83360593  0.00027390  0.83327069
   0.83406453  0.16648311  0.66662273
   0.91687363  0.08354081  0.91656993
   0.75054571  0.08371583  0.75006859
   0.75032621  0.25011282  0.91655336
   0.91682327  0.24995965  0.75004456
   0.99976703  0.33301201  0.66675608
   0.99976742  0.49991075  0.83365504
   0.16646168  0.33312951  0.83353812
   0.16547184  0.49928742  0.66737998
   0.24964363  0.41630962  0.91726377
   0.08273628  0.41630989  0.75035619
   0.08211126  0.58344950  0.91788874
   0.24653728  0.58258546  0.75346274
   0.33262046  0.33213887  0.66737936
   0.33261998  0.49928756  0.83452823
   0.49955856  0.33084487  0.83582144
   0.50728359  0.48633890  0.68032771
   0.58368924  0.41617334  0.91733113
   0.41591627  0.41320245  0.75346442
   0.41633497  0.58300179  0.91708202
   0.58493518  0.58165450  0.75317708
   0.66889665  0.33150907  0.66672426
   0.66889740  0.49994150  0.83515709
   0.83379457  0.33327826  0.83338840
   0.83390290  0.50013336  0.66653291
   0.91682385  0.41662164  0.91670698
   0.75094590  0.41658154  0.75008455
   0.75134368  0.58342060  0.91756245
   0.91698427  0.58351668  0.75017254
   0.99994020  0.66690060  0.66675472
   0.99999820  0.83378954  0.83349786
   0.16417861  0.66622460  0.83582143
   0.16484213  0.83556305  0.66672538
   0.24950763  0.75035540  0.91733193
   0.08266804  0.75035550  0.75049250
   0.08344617  0.91699287  0.91655394
   0.24991398  0.91761331  0.75008613
   0.31966726  0.67394852  0.68033264
   0.33327482  0.83556284  0.83515801
   0.49961538  0.66628128  0.83436155
   0.50205505  0.83690069  0.66787755
   0.58358966  0.75025634  0.91683113
   0.41498782  0.75160209  0.75317800
   0.41675378  0.91801003  0.91756382
   0.58378068  0.91887830  0.75183248
   0.67023456  0.66872213  0.66787636
   0.66714638  0.83381356  0.83387677
   0.83461830  0.66698169  0.83429146
   0.83438682  0.83421573  0.66662947
   0.91723418  0.75034780  0.91702253
   0.75221241  0.75044840  0.75183280
   0.75044541  0.91711257  0.91673926
   0.91704834  0.91721362  0.75006891
   0.45852692  0.62518764  0.54147486
 
 position of ions in cartesian coordinates  (Angst):
   0.00190041  0.00311880 10.63309961
   0.00190020  1.77440164  1.76938530
   1.77316415  0.00291109  1.76959974
   1.77256705  1.77371980 10.63378600
   2.65801966  0.89031648  2.65294503
   0.88727713  0.88845678  0.88404821
   0.88745445  2.65994812  2.65528052
   2.65827810  2.65832021  0.88458506
   3.54546233  0.00778176  0.00195735
   3.54546638  1.77054513  1.76472392
   5.32050246  0.01701988  1.75548492
   5.31937493  1.77021725  0.00228933
   6.20884908  0.89280885  2.65128574
   4.43348735  0.89255765  0.87995070
   4.43217728  2.64921220  2.64446418
   6.20744122  2.65496580  0.88021136
   7.09464079  0.00451679 10.63260353
   7.09463938  1.77489057  1.76798039
   8.86673734  0.00423139  1.76826402
   8.86561322  1.77440189 10.63309963
   9.75157372  0.88907474  2.65472621
   7.98027398  0.88907512  0.88342661
   7.98099250  2.65797496  2.65400669
   9.75095050  2.65978449  0.88404931
   0.00121918  3.54507139 10.63377924
  10.63305248  5.31796549  1.76471419
   1.77191320  3.54441244  1.76759451
   1.76907703  5.31655125  0.00247256
   2.65784837  4.43034121  2.64868792
   0.88582049  4.43077209  0.88457690
   0.87672235  6.20467809  2.64446006
   2.65691559  6.20569705  0.88287198
   3.54404867  3.54158162  0.00247793
   3.54641926  5.31891437  1.76644229
   5.32085802  3.53480569  1.75883818
   5.31999224  5.31655915  0.00063409
   6.20851205  4.41175458  2.63522379
   4.43319821  4.42940496  0.88286974
   4.43942303  6.21192208  2.64355714
   6.20885233  6.20543341  0.88134038
   7.09484539  3.54325614  0.00000904
   7.09938505  5.31788619  1.76129102
   8.86540725  3.54567703  1.76958970
   8.87028363  5.31796625  0.00194618
   9.75281415  4.43051974  2.65293809
   7.98205926  4.43052014  0.88218431
   8.00681035  6.21264299  2.62818968
   9.75506199  6.20598405  0.87993619
  10.63272216  7.09187781  0.00227629
   0.00239723  8.86714711  1.76798552
   1.76231118  7.09334940  1.75883405
   1.77074929  8.86735155  0.00002050
   2.63926058  7.98101780  2.63522357
   0.88246360  7.97994781  0.88021409
   0.88547926  9.75349118  2.65401341
   2.65801675  9.75456563  0.88219065
   3.54406408  7.09248796  0.00063850
   3.54539557  8.87188210  1.76129780
   5.32510647  7.09759694  1.76378303
   5.31985945  8.86843109 10.63418128
   6.21533811  7.98782673  2.64183638
   4.43292518  7.98135084  0.88134577
   4.44014127  9.77929750  2.62820478
   6.20885136  9.75621968  0.87969080
   7.09593194  7.09234971 10.63417526
   7.09783385  8.87032215  1.76207051
   8.87952525  7.09300924  1.75547331
   8.86701513  8.86714669 10.63260507
   9.75531551  7.98135632  2.65127885
   7.98372014  7.98135563  0.87968550
   7.98240700  9.75489837  2.65259493
   9.75157255  9.75277487  0.88342805
   0.00239860  0.00451580  3.54035825
  10.63271241  1.77022049  5.31562462
   1.76230787  0.01366294  5.31414920
   1.77075035  1.77248280  3.54015633
   2.65691120  0.88963417  6.20181389
   0.88245877  0.89229220  4.42756194
   0.87325517  2.64575802  6.20252899
   2.65351425  2.65168258  4.42747005
   3.54538965  0.01119982  3.53562511
   3.54406430  1.77185656  5.31500895
   5.32509906  0.00870208  5.30990349
   5.31985717  1.77331402  3.53907511
   6.20884526  0.89115264  6.20207240
   4.43292641  0.89115147  4.42615515
   4.42771914  2.65433319  6.20728088
   6.20647021  2.65699848  4.42852957
   7.09782748  0.01041771  3.53717622
   7.09592589  1.77331539  5.31514551
   8.87951612  0.01702225  5.31449575
   8.86701933  1.77489037  3.54036007
   9.75505101  0.89256124  6.20151391
   7.98371494  0.89281002  4.42614959
   7.99053694  2.64921566  6.20282272
   9.75478797  2.65496748  4.42755579
  10.63498991  3.54325599  3.54015324
  10.63436802  5.31655931  5.31500861
   1.74603996  3.51853592  5.32219613
   1.75310377  5.31687558  3.52127575
   2.62191028  4.39441218  6.21172523
   0.87918171  4.42600383  4.42746413
   0.88183395  6.20022531  6.20727629
   2.62496018  6.18589390  4.41421195
   3.54438738  3.52559694  3.52128577
   3.39970376  5.17220450  5.24004080
   5.31341437  3.53406072  5.32158631
   5.33935602  5.30464382  3.50705034
   6.22078344  4.39746405  6.22159641
   4.41340338  4.39746223  4.41421469
   6.35304617  6.13048292  4.28195438
   7.09509554  3.53923089  3.53990418
   7.12794944  5.30464670  5.29564463
   8.87616255  3.53480708  5.31414320
   8.87370909  5.31788841  3.53561434
   9.75212973  4.42940655  6.20179962
   7.99977853  4.41175422  4.42648612
   7.99144430  6.21192402  6.19557712
   9.75366118  6.20543350  4.42614601
   0.00082617  7.09235036  3.53906742
   0.00082143  8.86843267  5.31514250
   1.76156762  7.08590044  5.32159192
   1.76671887  8.86760932  3.53989582
   2.62495231  7.99328861  6.22160577
   0.88450139  7.97897844  4.42852158
   0.87671116  9.76303768  6.20282327
   2.63926351  9.77227071  4.42649159
   3.53213170  7.11186040  3.50705745
   3.53212197  8.90043664  5.29564466
   5.32957112  8.90339260  3.50409668
   6.35308905  8.12558438  6.27702841
   4.35797319  8.12559476  4.28190117
   4.43941726  9.76393541  6.19558487
   6.21533734  9.76566038  4.41966487
   7.13092933  7.10209265  3.50407241
   7.13091073  8.90339821  5.30542503
   8.87121997  7.09759944  5.30989356
   8.87293177  8.87032428  3.53716770
   9.75365690  7.98135294  6.20207364
   7.99316372  7.98782683  4.41966401
   8.00679884  9.77930100  6.19485906
   9.75531139  9.75622138  4.42614654
  10.63304407  0.00778430  7.08953771
   0.00121400  1.77372144  8.86243250
   1.77190718  0.00490273  8.86309388
   1.76907300  1.77002628  7.09095047
   2.65827990  0.88792124  9.74918079
   0.88581926  0.88792327  7.97672143
   0.88596775  2.65846348  9.74903332
   2.65495025  2.65240115  7.98005111
   3.54640576  0.00605606  7.08859535
   3.54404927  1.77002489  8.86592670
   5.32085284  0.01366219  8.87269453
   5.31999198  1.77185732  7.09093664
   6.20743621  0.89229281  9.75254125
   4.43318692  0.88963467  7.97809127
   4.43246729  2.64575792  9.76174499
   6.20753032  2.65168420  7.98148748
   7.09937674  0.01120133  7.08961260
   7.09484270  1.77248561  8.86424860
   8.86539924  0.00291297  8.86183399
   8.87027643  1.77054792  7.08953285
   9.75095127  0.88845649  9.74772144
   7.98205383  0.89031792  7.97697965
   7.97971945  2.65994994  9.74754518
   9.75041567  2.65832089  7.97672404
  10.63252263  3.54158275  7.09095111
  10.63252671  5.31655094  8.86592149
   1.77031998  3.54283243  8.86467804
   1.75979310  5.30992185  7.09758626
   2.65496011  4.42745289  9.75510036
   0.87990032  4.42745574  7.98003821
   0.87325326  6.20498560  9.76174698
   2.62192406  6.19579646  8.01307644
   3.53741871  3.53229697  7.09757965
   3.53741351  5.30992335  8.87520787
   5.31280541  3.51853522  8.88896119
   5.39496113  5.17221429  7.23528539
   6.20753516  4.42600356  9.75581675
   4.42326959  4.39440813  8.01309433
   4.42772252  6.20022416  9.75316746
   6.22078581  6.18589570  8.01003842
   7.11371606  3.52559905  7.09061262
   7.11372396  5.31687798  8.88189587
   8.86740546  3.54441435  8.86308586
   8.86855750  5.31891841  7.08857764
   9.75042189  4.43077120  9.74917890
   7.98630986  4.43034478  7.97714933
   7.99054024  6.20467819  9.75827692
   9.75212788  6.20570007  7.97808519
  10.63436422  7.09248803  7.09093659
  10.63498112  8.86735199  8.86424994
   1.74603956  7.08529879  8.88896113
   1.75309606  8.88621321  7.09062453
   2.65351373  7.98002989  9.75582527
   0.87917467  7.98003088  7.98148787
   0.88745006  9.75221940  9.74755132
   2.65783519  9.75881776  7.97716614
   3.39966140  7.16744272  7.23533774
   3.54437783  8.88621105  8.88190566
   5.31340969  7.08590151  8.87343531
   5.33935562  8.90043907  7.10287790
   6.20647622  7.97897638  9.75049927
   4.41339559  7.99328838  8.01004822
   4.43217657  9.76303686  9.75829141
   6.20850771  9.77227095  7.99573863
   7.12794473  7.11186001  7.10286519
   7.09510194  8.86760738  8.86827964
   8.87616580  7.09335044  8.87268987
   8.87370403  8.87188450  7.08960455
   9.75478574  7.97994906  9.75253480
   7.99977913  7.98101894  7.99574201
   7.98098710  9.75349242  9.74952222
   9.75280928  9.75456706  7.97698304
   4.87643392  6.64887074  5.75858530
 


--------------------------------------------------------------------------------------------------------


 use parallel FFT for orbitals z direction half grid
 k-point   1 :   0.0000 0.0000 0.0000  plane waves:    9775

 maximum and minimum number of plane-waves per node :      1225     1219

 maximum number of plane-waves:      9775
 maximum index in each direction: 
   IXMAX=   16   IYMAX=   16   IZMAX=   16
   IXMIN=  -16   IYMIN=  -16   IZMIN=    0


 parallel 3D FFT for wavefunctions:
    minimum data exchange during FFTs selected (reduces bandwidth)
 parallel 3D FFT for charge:
    minimum data exchange during FFTs selected (reduces bandwidth)


 total amount of memory used by VASP MPI-rank0    82122. kBytes
=======================================================================

   base      :      30000. kBytes
   nonl-proj :       4837. kBytes
   fftplans  :       4899. kBytes
   grid      :      13063. kBytes
   one-center:       1327. kBytes
   wavefun   :      27996. kBytes
 
     INWAV:  cpu time    0.6548: real time    0.6997
 Broyden mixing: mesh for mixing (old mesh)
   NGX = 33   NGY = 33   NGZ = 33
  (NGX  =140   NGY  =140   NGZ  =140)
  gives a total of  35937 points

 charge density for first step will be calculated from the start-wavefunctions


--------------------------------------------------------------------------------------------------------


 Maximum index for augmentation-charges          589 (set IRDMAX)


--------------------------------------------------------------------------------------------------------


 initial charge from wavefunction
 First call to EWALD:  gamma=   0.167
 Maximum number of real-space cells 3x 3x 3
 Maximum number of reciprocal cells 3x 3x 3

    FEWALD:  cpu time    0.0143: real time    0.0174


--------------------------------------- Iteration      1(   1)  ---------------------------------------


    POTLOK:  cpu time    0.2463: real time    0.2486
atom = 215  type =  2  l = 3
 
 onsite density matrix
 
spin component  1
 
  0.1409 -0.0015 -0.1041 -0.0634 -0.0835 -0.0111 -0.0956
 -0.0015  0.0605 -0.0011 -0.0019 -0.0011  0.0000  0.0015
 -0.1041 -0.0011  0.1947  0.0416 -0.0095  0.1315  0.0835
 -0.0634 -0.0019  0.0416  0.0603  0.0416 -0.0000  0.0634
 -0.0835 -0.0011 -0.0095  0.0416  0.1947 -0.1315  0.1041
 -0.0111  0.0000  0.1315 -0.0000 -0.1315  0.2753 -0.0111
 -0.0956  0.0015  0.0835  0.0634  0.1041 -0.0111  0.1409
 
spin component  2
 
  0.1508  0.0418 -0.0923 -0.0452 -0.0715 -0.0120 -0.1044
  0.0418  0.2144  0.0324  0.0529  0.0324  0.0000 -0.0418
 -0.0923  0.0324  0.1985  0.0517 -0.0004  0.1275  0.0715
 -0.0452  0.0529  0.0517  0.0793  0.0517 -0.0000  0.0452
 -0.0715  0.0324 -0.0004  0.0517  0.1985 -0.1275  0.0923
 -0.0120  0.0000  0.1275 -0.0000 -0.1275  0.2700 -0.0120
 -0.1044 -0.0418  0.0715  0.0452  0.0923 -0.0120  0.1508
 
 occupancies and eigenvectors
 
  o =  0.0108  v =  0.4555  0.0650  0.3528  0.5761  0.3528  0.0000 -0.4555  0.0000  0.0000  0.0000  0.0000  0.0000  0.0000  0.0000      0.0000  0.0000  0.0000  0.0000  0.0000  0.0000  0.0000  0.0000  0.0000  0.0000  0.0000  0.0000  0.0000  0.0000
  o =  0.0264  v =  0.0000  0.0000  0.0000  0.0000  0.0000  0.0000  0.0000 -0.4102  0.4383 -0.3178 -0.5190 -0.3178 -0.0000  0.4103      0.0000  0.0000  0.0000  0.0000  0.0000  0.0000  0.0000  0.0000  0.0000  0.0000  0.0000  0.0000  0.0000  0.0000
  o =  0.0403  v = -0.6043 -0.0000 -0.4744  0.3960  0.0370  0.2367 -0.4422  0.0000  0.0000  0.0000  0.0000  0.0000  0.0000  0.0000      0.0000  0.0000  0.0000  0.0000  0.0000  0.0000  0.0000  0.0000  0.0000  0.0000  0.0000  0.0000  0.0000  0.0000
  o =  0.0403  v =  0.1799 -0.0000 -0.2099  0.6585 -0.5174 -0.1423  0.4495  0.0000  0.0000  0.0000  0.0000  0.0000  0.0000  0.0000      0.0000  0.0000  0.0000  0.0000  0.0000  0.0000  0.0000  0.0000  0.0000  0.0000  0.0000  0.0000  0.0000  0.0000
  o =  0.0415  v =  0.0000  0.0000  0.0000  0.0000  0.0000  0.0000  0.0000  0.6038 -0.0000  0.4774 -0.4035 -0.0352 -0.2314  0.4358      0.0000  0.0000  0.0000  0.0000  0.0000  0.0000  0.0000  0.0000  0.0000  0.0000  0.0000  0.0000  0.0000  0.0000
  o =  0.0415  v =  0.0000  0.0000  0.0000  0.0000  0.0000  0.0000  0.0000  0.1834 -0.0000 -0.2015  0.6557 -0.5169 -0.1424  0.4564      0.0000  0.0000  0.0000  0.0000  0.0000  0.0000  0.0000  0.0000  0.0000  0.0000  0.0000  0.0000  0.0000  0.0000
  o =  0.0538  v =  0.0000  0.0000  0.0000  0.0000  0.0000  0.0000  0.0000  0.3536 -0.0000 -0.4564 -0.0000  0.4564  0.5774  0.3536      0.0000  0.0000  0.0000  0.0000  0.0000  0.0000  0.0000  0.0000  0.0000  0.0000  0.0000  0.0000  0.0000  0.0000
  o =  0.0539  v = -0.3536 -0.0000  0.4564 -0.0000 -0.4564 -0.5774 -0.3536  0.0000  0.0000  0.0000  0.0000  0.0000  0.0000  0.0000      0.0000  0.0000  0.0000  0.0000  0.0000  0.0000  0.0000  0.0000  0.0000  0.0000  0.0000  0.0000  0.0000  0.0000
  o =  0.0607  v =  0.0297 -0.9979  0.0230  0.0375  0.0230  0.0000 -0.0297  0.0000  0.0000  0.0000  0.0000  0.0000  0.0000  0.0000      0.0000  0.0000  0.0000  0.0000  0.0000  0.0000  0.0000  0.0000  0.0000  0.0000  0.0000  0.0000  0.0000  0.0000
  o =  0.2591  v =  0.0000  0.0000  0.0000  0.0000  0.0000  0.0000  0.0000  0.2001  0.8988  0.1550  0.2530  0.1550 -0.0000 -0.2000      0.0000  0.0000  0.0000  0.0000  0.0000  0.0000  0.0000  0.0000  0.0000  0.0000  0.0000  0.0000  0.0000  0.0000
  o =  0.4200  v =  0.0000  0.0000  0.0000  0.0000  0.0000  0.0000  0.0000 -0.4823 -0.0000  0.5989  0.2422  0.1927  0.3488  0.4373      0.0000  0.0000  0.0000  0.0000  0.0000  0.0000  0.0000  0.0000  0.0000  0.0000  0.0000  0.0000  0.0000  0.0000
  o =  0.4200  v =  0.0000  0.0000  0.0000  0.0000  0.0000  0.0000  0.0000  0.1893  0.0000  0.1987 -0.1231 -0.6009  0.6864 -0.2780      0.0000  0.0000  0.0000  0.0000  0.0000  0.0000  0.0000  0.0000  0.0000  0.0000  0.0000  0.0000  0.0000  0.0000
  o =  0.4307  v = -0.4894 -0.0000  0.5884  0.2513  0.2153  0.3184  0.4511  0.0000  0.0000  0.0000  0.0000  0.0000  0.0000  0.0000      0.0000  0.0000  0.0000  0.0000  0.0000  0.0000  0.0000  0.0000  0.0000  0.0000  0.0000  0.0000  0.0000  0.0000
  o =  0.4307  v =  0.1720  0.0000  0.2268 -0.1144 -0.5927  0.6993 -0.2561  0.0000  0.0000  0.0000  0.0000  0.0000  0.0000  0.0000      0.0000  0.0000  0.0000  0.0000  0.0000  0.0000  0.0000  0.0000  0.0000  0.0000  0.0000  0.0000  0.0000  0.0000
 
    SETDIJ:  cpu time    0.1346: real time    0.1372
    TRIAL :  cpu time    3.9646: real time    4.0996
    CORREC:  cpu time    1.2983: real time    1.3994
    CHARGE:  cpu time    0.1547: real time    0.1568
    --------------------------------------------
      LOOP:  cpu time    5.8122: real time    6.0572

 eigenvalue-minimisations  :     0
 total energy-change (2. order) :-0.1940431E+04  (-0.3874962E-01)
 number of electron     869.0000003 magnetization      -1.0000000
 augmentation part       18.6468655 magnetization      -0.1028005

 Free energy of the ion-electron system (eV)
[...]
      1.77257      1.77372     10.63379         0.000102      0.000403     -0.000656
      2.65802      0.89032      2.65295         0.000117      0.000860     -0.000335
      0.88728      0.88846      0.88405         0.000380     -0.000917      0.000978
      0.88745      2.65995      2.65528        -0.000439     -0.000279      0.000032
      2.65828      2.65832      0.88459        -0.001079     -0.000466     -0.000011
      3.54546      0.00778      0.00196         0.000198      0.000339     -0.001448
      3.54547      1.77055      1.76472         0.000028      0.001377     -0.000536
      5.32050      0.01702      1.75548        -0.004406      0.001969     -0.002198
      5.31937      1.77022      0.00229        -0.001463      0.000596     -0.000746
      6.20885      0.89281      2.65129         0.002737      0.001202     -0.001481
      4.43349      0.89256      0.87995         0.001932     -0.000434      0.000339
      4.43218      2.64921      2.64446        -0.003401     -0.000277     -0.000916
      6.20744      2.65497      0.88021         0.000625      0.001981      0.001570
      7.09464      0.00452     10.63260        -0.000174      0.000370     -0.000062
      7.09464      1.77489      1.76798        -0.000002      0.000307     -0.000265
      8.86674      0.00423      1.76826         0.002506      0.002682     -0.002544
      8.86561      1.77440     10.63310        -0.001330      0.000185     -0.000107
      9.75157      0.88907      2.65473         0.000276      0.000143     -0.002028
      7.98027      0.88908      0.88343         0.002002      0.000132     -0.000238
      7.98099      2.65797      2.65401         0.000103      0.000038     -0.000125
      9.75095      2.65978      0.88405        -0.000842      0.000158      0.000810
      0.00122      3.54507     10.63378         0.000495     -0.000197     -0.000423
     10.63305      5.31797      1.76471         0.001344     -0.000022     -0.000375
      1.77191      3.54441      1.76759        -0.001330     -0.001325     -0.000305
      1.76908      5.31655      0.00247        -0.000198     -0.000968      0.000602
      2.65785      4.43034      2.64869        -0.000437     -0.000429      0.001722
      0.88582      4.43077      0.88458        -0.000274     -0.000852      0.000168
      0.87672      6.20468      2.64446        -0.000353     -0.003511     -0.001038
      2.65692      6.20570      0.88287        -0.000431     -0.002382      0.000851
      3.54405      3.54158      0.00248        -0.000885     -0.000427      0.000402
      3.54642      5.31891      1.76644        -0.000067     -0.000125      0.001753
      5.32086      3.53481      1.75884         0.000098      0.000094     -0.000528
      5.31999      5.31656      0.00063         0.000092     -0.002172      0.000582
      6.20851      4.41175      2.63522        -0.002402      0.001640     -0.002320
      4.43320      4.42940      0.88287        -0.002375     -0.000125      0.000995
      4.43942      6.21192      2.64356         0.001873      0.002303     -0.003685
      6.20885      6.20543      0.88134         0.000920     -0.000633      0.000545
      7.09485      3.54326      0.00001        -0.000062      0.000286     -0.001018
      7.09939      5.31789      1.76129        -0.000563      0.000202     -0.001901
      8.86541      3.54568      1.76959         0.000693     -0.000754     -0.000608
      8.87028      5.31797      0.00195         0.000435     -0.000074     -0.001316
      9.75281      4.43052      2.65294         0.001254      0.000193     -0.000444
      7.98206      4.43052      0.88218         0.000467      0.000160     -0.001223
      8.00681      6.21264      2.62819         0.005506      0.002195     -0.005521
      9.75506      6.20598      0.87994        -0.000472      0.002432      0.000501
     10.63272      7.09188      0.00228         0.000359     -0.001023     -0.000314
      0.00240      8.86715      1.76799         0.000203     -0.000101     -0.000488
      1.76231      7.09335      1.75883         0.000051      0.000727     -0.000398
      1.77075      8.86735      0.00002         0.000628     -0.000198     -0.001339
      2.63926      7.98102      2.63522         0.001211     -0.002833     -0.002331
      0.88246      7.97995      0.88021         0.002211      0.000190      0.001531
      0.88548      9.75349      2.65401        -0.000084      0.000404     -0.000336
      2.65802      9.75457      0.88219         0.000236      0.000273     -0.000982
      3.54406      7.09249      0.00064        -0.002181      0.000230      0.000586
      3.54540      8.87188      1.76130        -0.000253     -0.000281     -0.001931
      5.32511      7.09760      1.76378         0.000445      0.000919      0.000485
      5.31986      8.86843     10.63418        -0.002906      0.001274     -0.001108
      6.21534      7.98783      2.64184        -0.000092      0.000080     -0.002769
      4.43293      7.98135      0.88135        -0.000095      0.000776      0.000546
      4.44014      9.77930      2.62820         0.002253      0.005963     -0.005891
      6.20885      9.75622      0.87969         0.002688      0.001383     -0.001195
      7.09593      7.09235     10.63418         0.001291     -0.002345     -0.001132
      7.09783      8.87032      1.76207         0.000611      0.001404     -0.001663
      8.87953      7.09301      1.75547         0.002365     -0.004575     -0.002296
      8.86702      8.86715     10.63261         0.000466     -0.000056     -0.000275
      9.75532      7.98136      2.65128         0.001290      0.002227     -0.001410
      7.98372      7.98136      0.87969         0.001440      0.002240     -0.001301
      7.98241      9.75490      2.65259         0.002017      0.002148     -0.002034
      9.75157      9.75277      0.88343         0.000314      0.002104     -0.000284
      0.00240      0.00452      3.54036         0.000030      0.000415      0.000188
     10.63271      1.77022      5.31562         0.000691      0.000493      0.001356
      1.76231      0.01366      5.31415         0.000082      0.000346     -0.000243
      1.77075      1.77248      3.54016         0.000544      0.001287      0.000225
      2.65691      0.88963      6.20181        -0.000433     -0.001173      0.002066
      0.88246      0.89229      4.42756         0.002366     -0.001678     -0.000557
      0.87326      2.64576      6.20253         0.000094      0.000199     -0.001057
      2.65351      2.65168      4.42747        -0.001298     -0.001564     -0.001321
      3.54539      0.01120      3.53563         0.000101      0.001714      0.000420
      3.54406      1.77186      5.31501        -0.002300     -0.000482      0.000160
      5.32510      0.00870      5.30990         0.000627     -0.000495     -0.000718
      5.31986      1.77331      3.53908        -0.002837      0.001100     -0.001329
      6.20885      0.89115      6.20207         0.000992     -0.000678      0.000421
      4.43293      0.89115      4.42616        -0.000287     -0.000669     -0.000961
      4.42772      2.65433      6.20728        -0.000323     -0.002163      0.000332
      6.20647      2.65700      4.42853         0.001017     -0.000131     -0.000968
      7.09783      0.01042      3.53718         0.000972      0.001705     -0.001169
      7.09593      1.77332      5.31515         0.001322      0.001102      0.002683
      8.87952      0.01702      5.31450         0.002299      0.002009      0.004456
      8.86702      1.77489      3.54036         0.000290      0.000347     -0.000029
      9.75505      0.89256      6.20151        -0.000349     -0.000476     -0.002045
      7.98371      0.89281      4.42615         0.001493      0.001227     -0.002628
      7.99054      2.64922      6.20282         0.000909     -0.000353      0.003403
      9.75479      2.65497      4.42756        -0.001531      0.001938     -0.000512
     10.63499      3.54326      3.54015         0.001042      0.000310      0.000042
     10.63437      5.31656      5.31501        -0.000613     -0.002134     -0.000205
      1.74604      3.51854      5.32220        -0.005782     -0.005759      0.003868
      1.75310      5.31688      3.52128        -0.002012      0.002757      0.002613
      2.62191      4.39441      6.21173        -0.003646     -0.003346     -0.022987
      0.87918      4.42600      4.42746        -0.001148     -0.001020     -0.001235
      0.88183      6.20023      6.20728        -0.001901     -0.000573      0.000565
      2.62496      6.18589      4.41421        -0.025604     -0.019991     -0.008710
      3.54439      3.52560      3.52129         0.002492     -0.001892      0.002258
      3.39970      5.17220      5.24004        -0.197105     -0.196872     -0.002556
      5.31341      3.53406      5.32159        -0.001516     -0.004039      0.001413
      5.33936      5.30464      3.50705         0.022680     -0.010506     -0.025200
      6.22078      4.39746      6.22160         0.009325     -0.026093      0.020471
      4.41340      4.39746      4.41421        -0.020611     -0.025985     -0.009183
      6.35305      6.13048      4.28195         0.201298     -0.004050     -0.201477
      7.09510      3.53923      3.53990        -0.001561     -0.001148      0.001573
      7.12795      5.30465      5.29564         0.025338     -0.010717     -0.022843
      8.87616      3.53481      5.31414         0.000545      0.000091     -0.000260
      8.87371      5.31789      3.53561         0.001955      0.000096      0.000518
      9.75213      4.42941      6.20180        -0.000903     -0.000128      0.002465
      7.99978      4.41175      4.42649         0.002210      0.001718      0.002467
      7.99144      6.21192      6.19558         0.003767      0.002309     -0.001981
      9.75366      6.20543      4.42615        -0.000507     -0.000586     -0.000871
      0.00083      7.09235      3.53907         0.001135     -0.002356     -0.001302
      0.00082      8.86843      5.31514         0.001118      0.001278      0.002764
      1.76157      7.08590      5.32159        -0.004244     -0.000745      0.001097
      1.76672      8.86761      3.53990        -0.000355     -0.002059      0.002045
      2.62495      7.99329      6.22161        -0.025308      0.008036      0.020498
      0.88450      7.97898      4.42852         0.000184      0.000474     -0.000665
      0.87671      9.76304      6.20282        -0.000097      0.001103      0.003621
      2.63926      9.77227      4.42649         0.000966      0.002697      0.002565
      3.53213      7.11186      3.50706        -0.010125      0.023123     -0.025431
      3.53212      8.90044      5.29564        -0.009459      0.024974     -0.022578
      5.32957      8.90339      3.50410        -0.023322      0.005044     -0.004743
      6.35309      8.12558      6.27703         0.197576      0.198176      0.005238
      4.35797      8.12559      4.28190        -0.005593      0.197058     -0.196605
      4.43942      9.76394      6.19558         0.001878      0.003514     -0.001988
      6.21534      9.76566      4.41966        -0.000364      0.002290      0.000326
      7.13093      7.10209      3.50407         0.003114     -0.025009     -0.003206
      7.13091      8.90340      5.30543         0.004294      0.004686      0.023704
      8.87122      7.09760      5.30989        -0.000482      0.000864     -0.000489
      8.87293      8.87032      3.53717         0.001657      0.001288     -0.000695
      9.75366      7.98135      6.20207        -0.000511      0.000755      0.000173
      7.99316      7.98783      4.41966         0.002920      0.000178     -0.000051
      8.00680      9.77930      6.19486         0.005795      0.005882     -0.002247
      9.75531      9.75622      4.42615         0.001212      0.001364     -0.002563
     10.63304      0.00778      7.08954         0.001443      0.000309     -0.000193
      0.00121      1.77372      8.86243         0.000676      0.000350     -0.000025
      1.77191      0.00490      8.86309        -0.001267      0.000416      0.001258
      1.76907      1.77003      7.09095        -0.000197     -0.000555      0.001103
      2.65828      0.88792      9.74918        -0.001258     -0.000103      0.000544
      0.88582      0.88792      7.97672        -0.000499     -0.000142      0.001207
      0.88597      2.65846      9.74903         0.001399      0.001677     -0.001463
      2.65495      2.65240      7.98005        -0.000020     -0.001434     -0.000124
      3.54641      0.00606      7.08860         0.000220     -0.001950     -0.000201
      3.54405      1.77002      8.86593        -0.001103     -0.000506      0.000248
      5.32085      0.01366      8.87269         0.000109      0.000375     -0.000104
      5.31999      1.77186      7.09094        -0.000202     -0.000486      0.002290
      6.20744      0.89229      9.75254         0.000667     -0.001685     -0.002306
      4.43319      0.88963      7.97809        -0.002056     -0.001210      0.000360
      4.43247      2.64576      9.76174         0.001218      0.000122     -0.000032
      6.20753      2.65168      7.98149         0.001320     -0.001597      0.001206
      7.09938      0.01120      7.08961        -0.000498      0.001712     -0.000199
      7.09484      1.77249      8.86425        -0.000195      0.001201     -0.000460
      8.86540      0.00291      8.86183         0.000883      0.000498      0.000421
      8.87028      1.77055      7.08953         0.000562      0.001342      0.000034
      9.75095      0.88846      9.74772        -0.000968     -0.000874     -0.000334
      7.98205      0.89032      7.97698         0.000384      0.000912     -0.000093
      7.97972      2.65995      9.74755        -0.000055     -0.000321      0.000446
      9.75042      2.65832      7.97672         0.000008     -0.000412      0.000970
     10.63252      3.54158      7.09095        -0.000409     -0.000430      0.000839
     10.63253      5.31655      8.86592        -0.000562     -0.000911      0.000251
      1.77032      3.54283      8.86468        -0.001061     -0.001476      0.001155
      1.75979      5.30992      7.09759        -0.006368      0.003094     -0.003278
      2.65496      4.42745      9.75510        -0.000484      0.000226      0.001464
      0.87990      4.42746      7.98004        -0.001480      0.000091      0.000478
      0.87325      6.20499      9.76175         0.000448      0.000562     -0.000472
      2.62192      6.19580      8.01308        -0.004992      0.021552      0.004925
      3.53742      3.53230      7.09758         0.002694     -0.006662     -0.002633
      3.53741      5.30992      8.87521         0.003191      0.002944      0.006422
      5.31281      3.51854      8.88896        -0.004021     -0.005722      0.005749
      5.39496      5.17221      7.23529         0.002148     -0.197872      0.198074
      6.20754      4.42600      9.75582         0.001256     -0.000986      0.001273
      4.42327      4.39441      8.01309         0.023328     -0.003018      0.003252
      4.42772      6.20022      9.75317        -0.000507     -0.000527      0.001972
      6.22079      6.18590      8.01004         0.008969     -0.020011      0.025795
      7.11372      3.52560      7.09061        -0.002388     -0.001888     -0.002478
      7.11372      5.31688      8.88190        -0.002659      0.002665      0.001991
      8.86741      3.54441      8.86309         0.000280     -0.001345      0.001344
      8.86856      5.31892      7.08858        -0.001691     -0.000213      0.000179
      9.75042      4.43077      9.74918        -0.000135     -0.000793      0.000263
      7.98631      4.43034      7.97715        -0.001562     -0.000490      0.000506
      7.99054      6.20468      9.75828         0.000992     -0.003469      0.000418
      9.75213      6.20570      7.97809        -0.000791     -0.002466      0.000368
     10.63436      7.09249      7.09094        -0.000609      0.000298      0.002140
     10.63498      8.86735      8.86425         0.001282     -0.000151     -0.000569
      1.74604      7.08530      8.88896        -0.005945     -0.003457      0.005935
      1.75310      8.88621      7.09062        -0.002042     -0.002137     -0.002879
      2.65351      7.98003      9.75583        -0.001420      0.001270      0.001157
      0.87917      7.98003      7.98149        -0.001057      0.001246      0.001355
      0.88745      9.75222      9.74755        -0.000356      0.000057      0.000327
      2.65784      9.75882      7.97717        -0.000190     -0.002240      0.000196
      3.39966      7.16744      7.23534        -0.193501      0.004260      0.193416
      3.54438      8.88621      8.88191         0.002790     -0.002051      0.002028
      5.31341      7.08590      8.87344        -0.001253     -0.000822      0.004209
      5.33936      8.90044      7.10288         0.022481      0.024930      0.009535
      6.20648      7.97898      9.75050         0.000789      0.000552     -0.000093
      4.41340      7.99329      8.01005        -0.020628      0.008142      0.025386
      4.43218      9.76304      9.75829        -0.003571      0.001063      0.000101
      6.20851      9.77227      7.99574        -0.002470      0.002722     -0.001051
      7.12794      7.11186      7.10287         0.025514      0.023207      0.010422
      7.09510      8.86761      8.86828        -0.001924     -0.001952      0.000533
      8.87617      7.09335      8.87269         0.000447      0.000743     -0.000064
      8.87370      8.87188      7.08960         0.001977     -0.000307      0.000259
      9.75479      7.97995      9.75253        -0.001497      0.000180     -0.002108
      7.99978      7.98102      7.99574         0.002228     -0.002807     -0.001377
      7.98099      9.75349      9.74952         0.000264      0.000360      0.000061
      9.75281      9.75457      7.97698         0.001067      0.000303     -0.000247
      4.87643      6.64887      5.75859        -0.006888      0.001076      0.005005
 -----------------------------------------------------------------------------------
    total drift:                               -0.000299     -0.000088      0.000173


--------------------------------------------------------------------------------------------------------



  FREE ENERGIE OF THE ION-ELECTRON SYSTEM (eV)
  ---------------------------------------------------
  free  energy   TOTEN  =     -1940.50116982 eV

  energy  without entropy=    -1940.50116982  energy(sigma->0) =    -1940.50116982
 


--------------------------------------------------------------------------------------------------------


    POTLOK:  cpu time    0.3979: real time    0.3998


--------------------------------------------------------------------------------------------------------


 writing wavefunctions
     LOOP+:  cpu time   68.4911: real time   71.5639
    4ORBIT:  cpu time    0.0000: real time    0.0000

 total amount of memory used by VASP MPI-rank0    82122. kBytes
=======================================================================

   base      :      30000. kBytes
   nonl-proj :       4837. kBytes
   fftplans  :       4899. kBytes
   grid      :      13063. kBytes
   one-center:       1327. kBytes
   wavefun   :      27996. kBytes
 
  
  
 General timing and accounting informations for this job:
 ========================================================
  
                  Total CPU time used (sec):       81.676
                            User time (sec):       73.678
                          System time (sec):        7.997
                         Elapsed time (sec):       86.357
  
                   Maximum memory used (kb):      373472.
                   Average memory used (kb):          N/A
  
                          Minor page faults:       231136
                          Major page faults:            0
                 Voluntary context switches:         2317
