 vasp.6.2.1 16May21 (build Sep 27 2021 21:11:04) gamma-only                     
  
 executed on             LinuxIFC date 2023.05.04  02:36:38
 running   24 mpi-ranks, with    1 threads/rank
 distrk:  each k-point on   24 cores,    1 groups
 distr:  one band on NCORE=   8 cores,    3 groups


--------------------------------------------------------------------------------------------------------


 INCAR:
   GGA = PE
   ISTART = 1
   ISPIN = 2
   ENCUT = 370
   ENAUG = 740
   EDIFF = 1E-5
   IBRION = 2
   POTIM = 0.2
   ALGO = All
   NSW = 0
   EDIFFG = -1E-2
   ISMEAR = 0
   SIGMA = 0.01
   ISIF = 1
   LREAL = .FALSE.
   ISYM = 0
   PREC = Accurate
   NCORE = 8
   NELM = 60
   NWRITE = 2
   SYMPREC = 1.0e-8

 POTCAR:    PAW_PBE C 08Apr2002                   
 POTCAR:    PAW_PBE Pa 07Sep2000                  
 -----------------------------------------------------------------------------
|                                                                             |
|           W    W    AA    RRRRR   N    N  II  N    N   GGGG   !!!           |
|           W    W   A  A   R    R  NN   N  II  NN   N  G    G  !!!           |
|           W    W  A    A  R    R  N N  N  II  N N  N  G       !!!           |
|           W WW W  AAAAAA  RRRRR   N  N N  II  N  N N  G  GGG   !            |
|           WW  WW  A    A  R   R   N   NN  II  N   NN  G    G                |
|           W    W  A    A  R    R  N    N  II  N    N   GGGG   !!!           |
|                                                                             |
|     You use a magnetic or noncollinear calculation, but did not specify     |
|     the initial magnetic moment with the MAGMOM tag. Note that a            |
|     default of 1 will be used for all atoms. This ferromagnetic setup       |
|     may break the symmetry of the crystal, in particular it may rule        |
|     out finding an antiferromagnetic solution. Thence, we recommend         |
|     setting the initial magnetic moment manually or verifying carefully     |
|     that this magnetic setup is desired.                                    |
|                                                                             |
 -----------------------------------------------------------------------------

 POTCAR:    PAW_PBE C 08Apr2002                   
   SHA256 =  253f7b50bb8d59471dbedb8285d89021f4a42ed1a2c5d38a03a736e69125dd95 C/POTCAR              
   COPYR  = (c) Copyright 08Apr2002 Georg Kresse                                                    
   COPYR  = This file is part of the software VASP. Any use, copying, and all other rights are regul
   COPYR  = If you do not have a valid VASP license, you may not use, copy or distribute this file. 
   VRHFIN =C: s2p2                                                                                  
   LEXCH  = PE                                                                                      
   EATOM  =   147.1560 eV,   10.8157 Ry                                                             
                                                                                                    
   TITEL  = PAW_PBE C 08Apr2002                                                                     
   LULTRA =        F    use ultrasoft PP ?                                                          
   IUNSCR =        1    unscreen: 0-lin 1-nonlin 2-no                                               
   RPACOR =    1.200    partial core radius                                                         
   POMASS =   12.011; ZVAL   =    4.000    mass and valenz                                          
   RCORE  =    1.500    outmost cutoff radius                                                       
   RWIGS  =    1.630; RWIGS  =    0.863    wigner-seitz radius (au A)                               
   ENMAX  =  400.000; ENMIN  =  300.000 eV                                                          
   ICORE  =        2    local potential                                                             
   LCOR   =        T    correct aug charges                                                         
   LPAW   =        T    paw PP                                                                      
   EAUG   =  644.873                                                                                
   DEXC   =    0.000                                                                                
   RMAX   =    1.529    core radius for proj-oper                                                   
   RAUG   =    1.300    factor for augmentation sphere                                              
   RDEP   =    1.501    radius for radial grids                                                     
   RDEPT  =    1.300    core radius for aug-charge                                                  
                                                                                                    
   Atomic configuration                                                                             
    4 entries                                                                                       
     n  l   j            E        occ.                                                              
     1  0  0.50      -273.3789   2.0000                                                             
     2  0  0.50       -13.7508   2.0000                                                             
     2  1  0.50        -5.2854   2.0000                                                             
     3  2  1.50        -5.4423   0.0000                                                             
   Description                                                                                      
     l       E           TYP  RCUT    TYP  RCUT                                                     
     0    -13.7508458     23  1.200                                                                 
     0     -8.2022199     23  1.200                                                                 
     1     -5.2854383     23  1.500                                                                 
     1     34.0145650     23  1.500                                                                 
     2     -5.4423304      7  1.500                                                                 
  local pseudopotential read in
  partial core-charges read in
  partial kinetic energy density read in
  atomic valenz-charges read in
  non local Contribution for L=           0  read in
    real space projection operators read in
  non local Contribution for L=           0  read in
    real space projection operators read in
  non local Contribution for L=           1  read in
    real space projection operators read in
  non local Contribution for L=           1  read in
    real space projection operators read in
    PAW grid and wavefunctions read in
 
   number of l-projection  operators is LMAX  =           4
   number of lm-projection operators is LMMAX =           8
 
 POTCAR:    PAW_PBE Pa 07Sep2000                  
   SHA256 =  04e32654b760de29c7f02015f2c4b9b92aeb120699210996a29249ba80bfa323 Pa/POTCAR             
   COPYR  = (c) Copyright 07Sep2000 Georg Kresse                                                    
   COPYR  = This file is part of the software VASP. Any use, copying, and all other rights are regul
   COPYR  = If you do not have a valid VASP license, you may not use, copy or distribute this file. 
   VRHFIN =Pa:  [Xe,5d,4f]                                                                          
   LEXCH  = PE                                                                                      
   EATOM  =  1180.0855 eV,   86.7338 Ry                                                             
                                                                                                    
   TITEL  = PAW_PBE Pa 07Sep2000                                                                    
   LULTRA =        F    use ultrasoft PP ?                                                          
   IUNSCR =        1    unscreen: 0-lin 1-nonlin 2-no                                               
   RPACOR =    2.200    partial core radius                                                         
   POMASS =  229.000; ZVAL   =   13.000    mass and valenz                                          
   RCORE  =    2.800    outmost cutoff radius                                                       
   RWIGS  =    2.900; RWIGS  =    1.535    wigner-seitz radius (au A)                               
   ENMAX  =  252.193; ENMIN  =  189.145 eV                                                          
   RCLOC  =    1.808    cutoff for local pot                                                        
   LCOR   =        T    correct aug charges                                                         
   LPAW   =        T    paw PP                                                                      
   EAUG   =  536.979                                                                                
   DEXC   =    0.000                                                                                
   RMAX   =    2.858    core radius for proj-oper                                                   
   RAUG   =    1.300    factor for augmentation sphere                                              
   RDEP   =    2.921    radius for radial grids                                                     
   RDEPT  =    2.247    core radius for aug-charge                                                  
                                                                                                    
   Atomic configuration                                                                             
   18 entries                                                                                       
     n  l   j            E        occ.                                                              
     1  0  0.50   -112985.5190   2.0000                                                             
     2  0  0.50    -21035.6541   2.0000                                                             
     2  1  1.50    -17527.8639   6.0000                                                             
     3  0  0.50     -5294.0126   2.0000                                                             
     3  1  1.50     -4318.2192   6.0000                                                             
     3  2  2.50     -3460.9455  10.0000                                                             
     4  0  0.50     -1342.3530   2.0000                                                             
     4  1  1.50     -1023.6497   6.0000                                                             
     4  2  2.50      -699.1199  10.0000                                                             
     4  3  3.50      -353.3721  14.0000                                                             
     5  0  0.50      -298.9475   2.0000                                                             
     5  1  1.50      -201.1573   6.0000                                                             
     5  2  2.50       -97.1791  10.0000                                                             
     6  0  0.50       -48.3074   2.0000                                                             
     7  0  0.50        -4.5039   2.0000                                                             
     6  1  1.50       -24.3672   6.0000                                                             
     6  2  1.50        -3.1149   2.0000                                                             
     5  3  2.50        -5.1513   1.0000                                                             
   Description                                                                                      
     l       E           TYP  RCUT    TYP  RCUT                                                     
     0    -48.3074378     23  2.800                                                                 
     0     -4.5039177     23  2.800                                                                 
     1    -24.3672020     23  2.500                                                                 
     1    -25.7277846     23  2.500                                                                 
     2     -3.1148861     23  2.500                                                                 
     2      1.7959667     23  2.500                                                                 
     3     -5.1512774     23  2.800                                                                 
     3     -6.5118600     23  2.800                                                                 
  local pseudopotential read in
  partial core-charges read in
  partial kinetic energy density read in
  atomic valenz-charges read in
  non local Contribution for L=           0  read in
    real space projection operators read in
  non local Contribution for L=           0  read in
    real space projection operators read in
  non local Contribution for L=           1  read in
    real space projection operators read in
  non local Contribution for L=           1  read in
    real space projection operators read in
  non local Contribution for L=           2  read in
    real space projection operators read in
  non local Contribution for L=           2  read in
    real space projection operators read in
  non local Contribution for L=           3  read in
    real space projection operators read in
  non local Contribution for L=           3  read in
    real space projection operators read in
    PAW grid and wavefunctions read in
 
   number of l-projection  operators is LMAX  =           8
   number of lm-projection operators is LMMAX =          32
 
 -----------------------------------------------------------------------------
|                                                                             |
|               ----> ADVICE to this user running VASP <----                  |
|                                                                             |
|     You have a (more or less) 'large supercell' and for larger cells it     |
|     might be more efficient to use real-space projection operators.         |
|     Therefore, try LREAL= Auto in the INCAR file.                           |
|     Mind: For very accurate calculation, you might also keep the            |
|     reciprocal projection scheme (i.e. LREAL=.FALSE.).                      |
|                                                                             |
 -----------------------------------------------------------------------------

  PAW_PBE C 08Apr2002                   :
 energy of atom  1       EATOM= -147.1560
 kinetic energy error for atom=    0.0545 (will be added to EATOM!!)
  PAW_PBE Pa 07Sep2000                  :
 energy of atom  2       EATOM=-1180.0855
 kinetic energy error for atom=    0.0045 (will be added to EATOM!!)
 
 
 POSCAR: 3D\Atomistic
  positions in direct lattice
  velocities in cartesian coordinates
 exchange correlation table for  LEXCH =        8
   RHO(1)=    0.500       N(1)  =     2000
   RHO(2)=  100.500       N(2)  =     4000
 


--------------------------------------------------------------------------------------------------------


 ion  position               nearest neighbor table
   1  1.000  0.000  1.000-  72 1.53 194 1.53 160 1.54   6 1.54
   2  1.000  0.167  0.167-  21 1.53   7 1.53  24 1.54   6 1.54
   3  0.167  1.000  0.167-  55 1.53  56 1.53   5 1.53   6 1.54
   4  0.167  0.167  1.000-   8 1.53 144 1.53 146 1.54   6 1.54
   5  0.250  0.083  0.250-   3 1.53  10 1.54  76 1.54  81 1.54
   6  0.083  0.083  0.083-   4 1.54   2 1.54   1 1.54   3 1.54
   7  0.083  0.250  0.250-  27 1.53   2 1.53  97 1.54  76 1.54
   8  0.250  0.250  0.083-  27 1.53   4 1.53  33 1.54  10 1.54
   9  0.333  0.000  0.000-  14 1.53  56 1.54 202 1.54 144 1.54
  10  0.333  0.166  0.167-  14 1.53   5 1.54   8 1.54  15 1.54
  11  0.500  0.000  0.166-  14 1.53  13 1.53  64 1.53  63 1.55
  12  0.500  0.167  1.000- 154 1.54  14 1.54 152 1.54  16 1.54
  13  0.583  0.083  0.250-  89 1.53  11 1.53  84 1.54  18 1.54
  14  0.417  0.083  0.083-  11 1.53   9 1.53  10 1.53  12 1.54
  15  0.417  0.250  0.250- 105 1.53  35 1.53  84 1.54  10 1.54
  16  0.583  0.250  0.083-  35 1.53  41 1.53  18 1.53  12 1.54
  17  0.667  0.000  1.000- 152 1.53 210 1.54  64 1.54  22 1.54
  18  0.667  0.167  0.167-  16 1.53  23 1.54  22 1.54  13 1.54
  19  0.834  0.000  0.166-  72 1.53  21 1.53  22 1.53  71 1.54
  20  0.833  0.167  1.000-  22 1.53 162 1.53 160 1.54  24 1.54
  21  0.917  0.083  0.250-  19 1.53   2 1.53  73 1.54  92 1.54
  22  0.750  0.083  0.083-  19 1.53  20 1.53  17 1.54  18 1.54
  23  0.750  0.251  0.250-  43 1.53  18 1.54  92 1.54 111 1.54
  24  0.917  0.250  0.083-  20 1.54   2 1.54  25 1.54  43 1.54
  25  1.000  0.333  1.000- 184 1.53  30 1.53  24 1.54 146 1.54
  26  1.000  0.500  0.167-  48 1.53  31 1.53  45 1.54  30 1.54
  27  0.166  0.333  0.166-  30 1.53   7 1.53   8 1.53  29 1.54
  28  0.167  0.500  1.000- 170 1.53  32 1.53 168 1.54  30 1.54
  29  0.250  0.417  0.250- 105 1.53  34 1.53 100 1.53  27 1.54
  30  0.083  0.417  0.083-  27 1.53  25 1.53  26 1.54  28 1.54
  31  0.083  0.583  0.250- 100 1.53  51 1.53  26 1.53 119 1.53
  32  0.250  0.583  0.083-  34 1.53  51 1.53  57 1.53  28 1.53
  33  0.333  0.333  1.000- 154 1.53 168 1.54  38 1.54   8 1.54
  34  0.332  0.499  0.165-  32 1.53  38 1.53  29 1.53  39 1.56
  35  0.500  0.333  0.166-  16 1.53  15 1.53  38 1.53  37 1.55
  36  0.500  0.500  1.000-  38 1.54 176 1.54 178 1.54  40 1.54
  37  0.583  0.418  0.251- 108 1.50  42 1.53 111 1.53  35 1.55
  38  0.417  0.416  0.083-  34 1.53  35 1.53  36 1.54  33 1.54
  39  0.416  0.584  0.251- 108 1.50 127 1.50  59 1.54  34 1.56
  40  0.583  0.583  0.084-  59 1.53  42 1.53  36 1.54  65 1.54
  41  0.667  0.333  0.000-  16 1.53  46 1.54 176 1.54 162 1.54
  42  0.666  0.501  0.167-  40 1.53  47 1.53  37 1.53  46 1.54
  43  0.833  0.334  0.167-  45 1.53  46 1.53  23 1.53  24 1.54
  44  0.833  0.500  0.000-  48 1.53 186 1.53  46 1.54 184 1.54
  45  0.916  0.417  0.250-  43 1.53  97 1.54  26 1.54 114 1.54
  46  0.750  0.417  0.084-  43 1.53  41 1.54  44 1.54  42 1.54
  47  0.749  0.584  0.251- 132 1.50 114 1.53  42 1.53  67 1.55
  48  0.917  0.583  0.083-  67 1.53  26 1.53  44 1.53  49 1.53
  49  1.000  0.667  1.000-  48 1.53 208 1.53 170 1.53  54 1.53
  50  0.000  0.833  0.167-  54 1.53  69 1.53  55 1.54  72 1.54
  51  0.166  0.666  0.166-  54 1.53  32 1.53  31 1.53  53 1.55
  52  0.167  0.833  0.000-  54 1.53 192 1.53  56 1.54 194 1.54
  53  0.251  0.750  0.251- 127 1.50 122 1.53  58 1.53  51 1.55
  54  0.083  0.750  0.083-  51 1.53  50 1.53  52 1.53  49 1.53
  55  0.084  0.916  0.250-   3 1.53  73 1.54  50 1.54 122 1.54
  56  0.250  0.916  0.084-   3 1.53   9 1.54  52 1.54  58 1.54
  57  0.333  0.667  1.000- 192 1.53  32 1.53 178 1.54  62 1.54
  58  0.334  0.833  0.167-  62 1.53  53 1.53  63 1.53  56 1.54
  59  0.500  0.667  0.167-  40 1.53  62 1.53  39 1.54  61 1.54
  60  0.500  0.833  1.000- 202 1.54  64 1.54 200 1.54  62 1.54
  61  0.584  0.750  0.250- 129 1.50 132 1.50  59 1.54  66 1.56
  62  0.417  0.750  0.084-  59 1.53  58 1.53  60 1.54  57 1.54
  63  0.417  0.915  0.251- 129 1.50  58 1.53  81 1.53  11 1.55
  64  0.583  0.917  0.083-  66 1.53  11 1.53  60 1.54  17 1.54
  65  0.667  0.667  1.000- 186 1.53  70 1.53 200 1.54  40 1.54
  66  0.668  0.834  0.165-  70 1.53  64 1.53  71 1.53  61 1.56
  67  0.834  0.667  0.166-  48 1.53  70 1.53  69 1.53  47 1.55
  68  0.833  0.833  1.000- 208 1.53  70 1.53 210 1.54  72 1.54
  69  0.917  0.750  0.250- 135 1.53  67 1.53  50 1.53 119 1.53
  70  0.750  0.750  0.083-  66 1.53  67 1.53  65 1.53  68 1.53
  71  0.750  0.917  0.250-  89 1.53  66 1.53 135 1.53  19 1.54
  72  0.917  0.917  0.083-  19 1.53   1 1.53  50 1.54  68 1.54
  73  0.000  0.000  0.333-  78 1.53 139 1.53  55 1.54  21 1.54
  74  1.000  0.167  0.500-  78 1.54  79 1.54  96 1.54  93 1.54
  75  0.166  0.000  0.500-  78 1.53  77 1.53 125 1.53 126 1.55
  76  0.167  0.166  0.333-  78 1.53   5 1.54   7 1.54  80 1.54
  77  0.250  0.083  0.583- 148 1.53  75 1.53  82 1.54 143 1.54
  78  0.083  0.083  0.417-  75 1.53  73 1.53  76 1.53  74 1.54
  79  0.083  0.250  0.583-  99 1.53 164 1.53 143 1.53  74 1.54
  80  0.250  0.250  0.417- 105 1.53  99 1.53  82 1.54  76 1.54
  81  0.334  0.999  0.334-  86 1.53 126 1.53  63 1.53   5 1.54
  82  0.334  0.167  0.500-  77 1.54  80 1.54  86 1.54  87 1.54
  83  0.500  0.999  0.500-  86 1.53  85 1.53 130 1.54 131 1.54
  84  0.500  0.167  0.334-  15 1.54  13 1.54  88 1.54  86 1.54
  85  0.583  0.083  0.583- 156 1.53  83 1.53 151 1.54  90 1.54
  86  0.417  0.083  0.417-  81 1.53  83 1.53  84 1.54  82 1.54
  87  0.417  0.251  0.583- 172 1.53 107 1.53 151 1.54  82 1.54
  88  0.583  0.251  0.417- 111 1.53 107 1.53  84 1.54  90 1.54
  89  0.668  0.001  0.332-  71 1.53  94 1.53  13 1.53 131 1.57
  90  0.666  0.167  0.500-  95 1.54  94 1.54  85 1.54  88 1.54
  91  0.834  0.000  0.500-  93 1.53  94 1.53 139 1.53 138 1.55
  92  0.833  0.167  0.333-  96 1.53  23 1.54  21 1.54  94 1.54
  93  0.917  0.083  0.583-  91 1.53 140 1.53 159 1.53  74 1.54
  94  0.750  0.083  0.417-  89 1.53  91 1.53  90 1.54  92 1.54
  95  0.750  0.250  0.583- 180 1.53 113 1.53  90 1.54 159 1.54
  96  0.917  0.250  0.417- 113 1.53  97 1.53  92 1.53  74 1.54
  97  1.000  0.333  0.333-  96 1.53 102 1.53  45 1.54   7 1.54
  98  1.000  0.500  0.500- 115 1.53 102 1.53 103 1.54 118 1.54
  99  0.166  0.333  0.500-  79 1.53  80 1.53 102 1.53 101 1.55
 100  0.165  0.499  0.332-  31 1.53 102 1.53  29 1.53 104 1.56
 101  0.251  0.418  0.583- 106 1.50 167 1.53 172 1.53  99 1.55
 102  0.083  0.416  0.417- 100 1.53  99 1.53  98 1.53  97 1.53
 103  0.084  0.583  0.583- 121 1.53 167 1.53  98 1.54 188 1.54
 104  0.250  0.583  0.416- 106 1.50 127 1.50 121 1.54 100 1.56
 105  0.332  0.333  0.332-  29 1.53  80 1.53  15 1.53 110 1.57
 106  0.329  0.497  0.495- 104 1.50 110 1.50 101 1.50 212 2.56
 107  0.500  0.334  0.500-  87 1.53  88 1.53 110 1.54 109 1.54
 108  0.495  0.497  0.329-  39 1.50 110 1.50  37 1.50 212 2.56
 109  0.583  0.419  0.583- 175 1.50 112 1.50 107 1.54 180 1.57
 110  0.417  0.419  0.417- 108 1.50 106 1.50 107 1.54 105 1.57
 111  0.666  0.334  0.334-  88 1.53 116 1.53  37 1.53  23 1.54
 112  0.671  0.497  0.505- 117 1.50 109 1.50 116 1.50 212 2.56
 113  0.834  0.333  0.500-  96 1.53  95 1.53 115 1.53 116 1.55
 114  0.833  0.500  0.334- 118 1.53  47 1.53 116 1.53  45 1.54
 115  0.917  0.416  0.583- 183 1.53 113 1.53  98 1.53 164 1.53
 116  0.749  0.418  0.417- 112 1.50 114 1.53 111 1.53 113 1.55
 117  0.750  0.583  0.584- 112 1.50 204 1.50 134 1.54 183 1.56
 118  0.916  0.583  0.417- 134 1.53 114 1.53  98 1.54 119 1.54
 119  1.000  0.667  0.333-  69 1.53  31 1.53 124 1.54 118 1.54
 120  1.000  0.833  0.500- 139 1.53 125 1.53 124 1.54 136 1.54
 121  0.166  0.667  0.500- 103 1.53 124 1.53 123 1.54 104 1.54
 122  0.167  0.833  0.334- 124 1.53  53 1.53 126 1.53  55 1.54
 123  0.250  0.750  0.584- 128 1.50 196 1.50 121 1.54 191 1.56
 124  0.084  0.750  0.417- 121 1.53 122 1.53 120 1.54 119 1.54
 125  0.083  0.917  0.583- 191 1.53  75 1.53 120 1.53 140 1.53
 126  0.251  0.915  0.417- 128 1.50 122 1.53  81 1.53  75 1.55
 127  0.328  0.661  0.329-  53 1.50 104 1.50  39 1.50 212 2.58
 128  0.329  0.836  0.505- 123 1.50 130 1.50 126 1.50 212 2.56
 129  0.505  0.836  0.329-  61 1.50 131 1.50  63 1.50 212 2.56
 130  0.417  0.914  0.583- 199 1.50 128 1.50  83 1.54 148 1.57
 131  0.583  0.914  0.417- 129 1.50 133 1.50  83 1.54  89 1.57
 132  0.672  0.672  0.329-  47 1.50 137 1.50  61 1.50 212 2.58
 133  0.671  0.836  0.495- 137 1.50 131 1.50 138 1.50 212 2.56
 134  0.834  0.667  0.500- 118 1.53 136 1.53 117 1.54 137 1.54
 135  0.835  0.834  0.332-  69 1.53 139 1.53  71 1.53 137 1.56
 136  0.916  0.750  0.583- 134 1.53 207 1.53 120 1.54 188 1.54
 137  0.750  0.750  0.416- 133 1.50 132 1.50 134 1.54 135 1.56
 138  0.749  0.915  0.583- 133 1.50 207 1.53 156 1.53  91 1.55
 139  0.917  0.917  0.417- 135 1.53  91 1.53 120 1.53  73 1.53
 140  1.000  0.000  0.667-  93 1.53 125 1.53 211 1.54 145 1.54
 141  1.000  0.167  0.833- 163 1.53 145 1.53 160 1.54 146 1.54
 142  0.166  0.000  0.834- 194 1.53 145 1.53 144 1.53 195 1.54
 143  0.167  0.167  0.667-  79 1.53 147 1.54 145 1.54  77 1.54
 144  0.250  0.083  0.917- 142 1.53   4 1.53   9 1.54 149 1.54
 145  0.083  0.083  0.750- 142 1.53 141 1.53 140 1.54 143 1.54
 146  0.083  0.250  0.917-   4 1.54 141 1.54  25 1.54 166 1.54
 147  0.250  0.251  0.750- 166 1.53 149 1.54 143 1.54 172 1.54
 148  0.332  0.001  0.668- 195 1.53  77 1.53 153 1.53 130 1.57
 149  0.333  0.167  0.833- 154 1.53 147 1.54 144 1.54 153 1.54
 150  0.500  0.000  0.834- 152 1.53 153 1.53 202 1.53 203 1.55
 151  0.500  0.167  0.666- 153 1.54 155 1.54  85 1.54  87 1.54
 152  0.583  0.083  0.917- 150 1.53  17 1.53 157 1.53  12 1.54
 153  0.417  0.083  0.750- 148 1.53 150 1.53 151 1.54 149 1.54
 154  0.417  0.250  0.917- 174 1.53  33 1.53 149 1.53  12 1.54
 155  0.583  0.250  0.750- 180 1.53 174 1.53 151 1.54 157 1.54
 156  0.666  0.999  0.666-  85 1.53 138 1.53 203 1.53 161 1.54
 157  0.667  0.166  0.833- 152 1.53 161 1.54 162 1.54 155 1.54
 158  0.833  1.000  0.833- 211 1.53 210 1.53 161 1.53 160 1.54
 159  0.833  0.166  0.667-  93 1.53 161 1.54 163 1.54  95 1.54
 160  0.917  0.083  0.917-  20 1.54 141 1.54   1 1.54 158 1.54
 161  0.750  0.083  0.750- 158 1.53 157 1.54 159 1.54 156 1.54
 162  0.750  0.250  0.917- 182 1.53  20 1.53  41 1.54 157 1.54
 163  0.917  0.250  0.750- 182 1.53 141 1.53 164 1.54 159 1.54
 164  0.000  0.333  0.667-  79 1.53 115 1.53 169 1.54 163 1.54
 165  0.000  0.500  0.833- 170 1.53 187 1.53 169 1.54 184 1.54
 166  0.167  0.334  0.833- 169 1.53 168 1.53 147 1.53 146 1.54
 167  0.167  0.500  0.666- 103 1.53 171 1.53 101 1.53 169 1.54
 168  0.250  0.417  0.916- 166 1.53  33 1.54  28 1.54 173 1.54
 169  0.084  0.417  0.750- 166 1.53 164 1.54 165 1.54 167 1.54
 170  0.083  0.583  0.917- 190 1.53 165 1.53  28 1.53  49 1.53
 171  0.251  0.584  0.749- 196 1.50 167 1.53 173 1.53 190 1.55
 172  0.334  0.334  0.666-  87 1.53 101 1.53 177 1.53 147 1.54
 173  0.334  0.501  0.833- 178 1.53 171 1.53 177 1.53 168 1.54
 174  0.500  0.333  0.834- 154 1.53 155 1.53 176 1.53 177 1.55
 175  0.505  0.497  0.671- 179 1.50 109 1.50 177 1.50 212 2.56
 176  0.583  0.416  0.917- 181 1.53 174 1.53  36 1.54  41 1.54
 177  0.417  0.418  0.749- 175 1.50 173 1.53 172 1.53 174 1.55
 178  0.417  0.583  0.916- 198 1.53 173 1.53  36 1.54  57 1.54
 179  0.584  0.584  0.750- 175 1.50 204 1.50 198 1.54 181 1.56
 180  0.668  0.333  0.668- 185 1.53  95 1.53 155 1.53 109 1.57
 181  0.668  0.499  0.835- 186 1.53 176 1.53 185 1.53 179 1.56
 182  0.834  0.333  0.834- 184 1.53 163 1.53 162 1.53 185 1.54
 183  0.835  0.499  0.668- 187 1.53 115 1.53 185 1.53 117 1.56
 184  0.917  0.417  0.917- 182 1.53  25 1.53 165 1.54  44 1.54
 185  0.750  0.417  0.750- 180 1.53 181 1.53 183 1.53 182 1.54
 186  0.750  0.583  0.917- 181 1.53 206 1.53  65 1.53  44 1.53
 187  0.917  0.583  0.750- 183 1.53 206 1.53 165 1.53 188 1.53
 188  1.000  0.667  0.667- 187 1.53 193 1.53 103 1.54 136 1.54
 189  1.000  0.833  0.833- 208 1.53 193 1.53 211 1.54 194 1.54
 190  0.166  0.667  0.834- 170 1.53 192 1.53 193 1.53 171 1.55
 191  0.165  0.834  0.668- 193 1.53 125 1.53 195 1.53 123 1.56
 192  0.250  0.750  0.917- 197 1.53 190 1.53  57 1.53  52 1.53
 193  0.083  0.750  0.750- 191 1.53 190 1.53 189 1.53 188 1.53
 194  0.083  0.917  0.917- 142 1.53   1 1.53 189 1.54  52 1.54
 195  0.250  0.917  0.750- 148 1.53 197 1.53 191 1.53 142 1.54
 196  0.328  0.672  0.671- 171 1.50 123 1.50 201 1.50 212 2.58
 197  0.332  0.834  0.835- 192 1.53 202 1.53 195 1.53 201 1.56
 198  0.500  0.667  0.833- 178 1.53 200 1.53 201 1.54 179 1.54
 199  0.495  0.836  0.671- 201 1.50 130 1.50 203 1.50 212 2.56
 200  0.583  0.750  0.916- 198 1.53 205 1.53  60 1.54  65 1.54
 201  0.416  0.750  0.749- 199 1.50 196 1.50 198 1.54 197 1.56
 202  0.417  0.917  0.917- 197 1.53 150 1.53  60 1.54   9 1.54
 203  0.583  0.915  0.749- 199 1.50 205 1.53 156 1.53 150 1.55
 204  0.672  0.661  0.671- 209 1.50 117 1.50 179 1.50 212 2.58
 205  0.666  0.833  0.833- 200 1.53 209 1.53 203 1.53 210 1.54
 206  0.834  0.666  0.834- 208 1.53 186 1.53 187 1.53 209 1.55
 207  0.833  0.833  0.666- 136 1.53 209 1.53 138 1.53 211 1.54
 208  0.917  0.750  0.917- 206 1.53 189 1.53  68 1.53  49 1.53
 209  0.749  0.750  0.749- 204 1.50 207 1.53 205 1.53 206 1.55
 210  0.750  0.916  0.916- 158 1.53  17 1.54  68 1.54 205 1.54
 211  0.916  0.916  0.750- 158 1.53 140 1.54 189 1.54 207 1.54
 212  0.500  0.667  0.500- 129 2.56 108 2.56 175 2.56 199 2.56 112 2.56 133 2.56 106 2.56 128 2.56
                           132 2.58 204 2.58 127 2.58 196 2.58
 

IMPORTANT INFORMATION: All symmetrisations will be switched off!
NOSYMM: (Re-)initialisation of all symmetry stuff for point group C_1.


----------------------------------------------------------------------------------------

                                     Primitive cell                                     

  volume of cell :    1202.8529

  direct lattice vectors                    reciprocal lattice vectors
    10.635000229  0.000000000  0.000000000     0.094029147  0.000000000  0.000000000
     0.000000000 10.635000229  0.000000000     0.000000000  0.094029147  0.000000000
     0.000000000  0.000000000 10.635000229     0.000000000  0.000000000  0.094029147

  length of vectors
    10.635000229 10.635000229 10.635000229     0.094029147  0.094029147  0.094029147

  position of ions in fractional coordinates (direct lattice)
     0.999999262  0.000063567  0.999999248
     0.999999264  0.166666536  0.166615752
     0.166960390  0.999774177  0.166948737
     0.166618250  0.166666533  0.999999165
     0.250375169  0.082800268  0.250367578
     0.083434949  0.083253654  0.083431064
     0.083269409  0.249893242  0.250029973
     0.250030907  0.249902619  0.083271318
     0.333239041  0.000124548  0.000415080
     0.333254139  0.166359522  0.166727619
     0.500144118  0.000160686  0.166481783
     0.500000711  0.166666740  0.999998349
     0.583236617  0.083305301  0.250001894
     0.416720170  0.083360573  0.083426999
     0.416767536  0.250033810  0.250006251
     0.583282442  0.249973102  0.083426474
     0.666760795  0.000125722  0.999581746
     0.666744820  0.166975087  0.166726345
     0.833765751  0.000406494  0.166239085
     0.833380798  0.166666676  0.999999191
     0.916729623  0.083440521  0.250029861
     0.749969065  0.083431295  0.083270921
     0.749625283  0.250533003  0.250366443
     0.916564425  0.250079804  0.083430949
     0.999999166  0.333269806  0.999999105
     0.999531973  0.499886081  0.166502212
     0.166233078  0.332926860  0.166238860
     0.166543427  0.499889214  0.999558089
     0.249609398  0.416637729  0.249676929
     0.083227532  0.416688978  0.083219923
     0.082875947  0.583331702  0.249619078
     0.249672700  0.583363390  0.082944694
     0.333238826  0.333208779  0.999582429
     0.331924210  0.498908113  0.164934225
     0.499858092  0.333172247  0.166481313
     0.500000700  0.500021475  0.999999436
     0.582680181  0.418267483  0.251314657
     0.416624666  0.416429093  0.083060511
     0.416224498  0.583546529  0.250503952
     0.583217175  0.583385954  0.083589893
     0.666760510  0.333207962  0.000415858
     0.666190460  0.500503543  0.167323611
     0.833038368  0.333559666  0.166949003
     0.833455640  0.499890428  0.000440020
     0.916200802  0.416845780  0.250224141
     0.749742848  0.416870573  0.083808032
     0.748995705  0.583645231  0.251063751
     0.916700665  0.583297311  0.083270786
     0.999999078  0.666666540  0.999998694
     0.000463872  0.833448008  0.166503405
     0.166216098  0.666464005  0.166222283
     0.166543288  0.833443845  0.000439746
     0.251001335  0.749693156  0.251062480
     0.083297342  0.750036501  0.083270753
     0.083795985  0.916488154  0.250223555
     0.250257299  0.916462206  0.083807893
     0.333391592  0.666666243  0.999998873
     0.333811004  0.832831224  0.167322345
     0.500003200  0.666669598  0.166513973
     0.500001158  0.833311922  0.999998266
     0.583796453  0.749802984  0.250488478
     0.416784291  0.749947917  0.083588932
     0.417322940  0.915063079  0.251316073
     0.583378256  0.916906828  0.083057294
     0.666609540  0.666666907  0.999998969
     0.668074484  0.834429555  0.164929421
     0.833779095  0.666866987  0.166224003
     0.833455655  0.833443320  0.999557810
     0.917116719  0.750000838  0.249620837
     0.750328420  0.749971758  0.082943586
     0.750388152  0.916699157  0.249675016
     0.916771437  0.916644399  0.083219929
     0.000443605  0.000165562  0.333233396
     0.999999655  0.166666749  0.500000830
     0.166433490  0.000202332  0.500151950
     0.166727285  0.166355946  0.333252735
     0.249990265  0.083318307  0.583219267
     0.083426866  0.083387582  0.416704792
     0.083427334  0.249946229  0.583296547
     0.249988783  0.250013522  0.416782773
     0.333955273  0.998945862  0.333961529
     0.333621248  0.166666345  0.500001470
     0.500003419  0.999066395  0.499997532
     0.500000699  0.166667437  0.333615395
     0.583131715  0.082672129  0.583143348
     0.416869662  0.082672584  0.416858944
     0.416869343  0.250660663  0.583143923
     0.583131323  0.250661623  0.416859608
     0.667834749  0.000776123  0.332219208
     0.666379812  0.166666933  0.500001441
     0.833563180  0.000202849  0.499851369
     0.833272255  0.166978261  0.333253857
     0.916571555  0.083387496  0.583296898
     0.750012806  0.083323558  0.416779490
     0.750011330  0.250011597  0.583222485
     0.916571937  0.249946011  0.416704548
     0.999553206  0.333167629  0.333233875
     0.999996548  0.499971703  0.500001661
     0.166433695  0.333131353  0.499850380
     0.164719971  0.498855780  0.331929929
     0.251216189  0.418232687  0.582735319
     0.082972001  0.416359335  0.416607651
     0.083501133  0.583366503  0.583247694
     0.250060443  0.583393191  0.416184204
     0.332162192  0.332567670  0.332223788
     0.328763141  0.497226202  0.494914107
     0.500002119  0.334267314  0.500004988
     0.494973122  0.497280262  0.329149243
     0.583100864  0.419190916  0.582984971
     0.416921979  0.419215632  0.417038208
     0.666046236  0.334386771  0.333961614
     0.671214930  0.497201568  0.505093118
     0.833563345  0.333130619  0.500150988
     0.832754303  0.500473436  0.333787560
     0.917020734  0.416360882  0.583393137
     0.748782733  0.418229666  0.417268403
     0.749915324  0.583395872  0.583812844
     0.916491391  0.583367756  0.416755465
     0.999996430  0.666667004  0.333335974
     0.999996905  0.833361677  0.500001037
     0.166278838  0.666666160  0.500001133
     0.167237632  0.832861699  0.333785986
     0.250062431  0.749937811  0.583816416
     0.083501403  0.749966590  0.416755064
     0.082972890  0.916972837  0.583394345
     0.251215979  0.915101059  0.417266672
     0.328291111  0.661261039  0.328607107
     0.328762625  0.836107987  0.505087090
     0.505045730  0.836047185  0.329147677
     0.416925711  0.914113874  0.582962088
     0.583104447  0.914146286  0.417015618
     0.671680131  0.672073282  0.328609845
     0.671214652  0.836130920  0.494908583
     0.833707302  0.666666907  0.500001095
     0.835265949  0.834480431  0.331931682
     0.916491751  0.749965854  0.583247292
     0.749917377  0.749940038  0.416188135
     0.748782851  0.915103678  0.582733783
     0.917021728  0.916973415  0.416608857
     0.999553181  0.000165065  0.666767300
     0.999999292  0.166666634  0.833383664
     0.166233918  0.000405602  0.833760022
     0.166728558  0.166977189  0.666748355
     0.250031246  0.083430821  0.916726798
     0.083270053  0.083439767  0.749970148
     0.083435188  0.250080026  0.916567651
     0.250376522  0.250534021  0.749632208
     0.332164355  0.000762695  0.667777170
     0.333254795  0.166973562  0.833270877
     0.499858469  0.000159535  0.833517010
     0.500000662  0.166665845  0.666386279
     0.583282180  0.083359908  0.916570882
     0.416768481  0.083298399  0.749993608
     0.416720497  0.249973682  0.916570249
     0.583235554  0.250029450  0.749998009
     0.666045857  0.998946029  0.666040286
     0.666744177  0.166358428  0.833272341
     0.833037835  0.999773400  0.833050233
     0.833271103  0.166355233  0.666747296
     0.916564175  0.083253388  0.916567765
     0.749624229  0.082799846  0.749633629
     0.749968710  0.249902317  0.916727376
     0.916729130  0.249893515  0.749970227
     0.000443672  0.333168761  0.666767657
     0.000463866  0.499885875  0.833495385
     0.166960999  0.333559843  0.833050384
     0.167238135  0.500471910  0.666215794
     0.250257896  0.416871436  0.916190194
     0.083796601  0.416845878  0.749776395
     0.083297771  0.583297014  0.916727143
     0.251001954  0.583639904  0.748938049
     0.333955969  0.334389216  0.666040082
     0.333811043  0.500502380  0.832677257
     0.500143753  0.333174709  0.833516529
     0.505042580  0.497292739  0.670852889
     0.583378225  0.416426975  0.916940814
     0.417322876  0.418272848  0.748683549
     0.416784377  0.583385455  0.916409542
     0.583796137  0.583532016  0.749514067
     0.667832501  0.332559920  0.667781804
     0.668073474  0.498905869  0.835070140
     0.833764927  0.332927785  0.833759838
     0.835264401  0.498854863  0.668069374
     0.916771365  0.416689055  0.916778343
     0.750386660  0.416635878  0.750325259
     0.750328354  0.583362052  0.917054920
     0.917116146  0.583333374  0.750379273
     0.999996512  0.666666118  0.666665605
     0.999531953  0.833446836  0.833496758
     0.166216888  0.666868666  0.833776633
     0.164721327  0.834476313  0.668071127
     0.249672815  0.749969743  0.917053741
     0.082876492  0.750001000  0.750381013
     0.083227533  0.916643727  0.916778386
     0.249610836  0.916693684  0.750323324
     0.328293581  0.672069666  0.671394475
     0.331925268  0.834423878  0.835065362
     0.500003079  0.666663508  0.833487225
     0.494976675  0.836046581  0.670851289
     0.583217030  0.749947450  0.916408687
     0.416225051  0.749785436  0.749498467
     0.416624729  0.916903561  0.916937630
     0.582680372  0.915063737  0.748685219
     0.671677580  0.661262763  0.671391704
     0.666190540  0.832829745  0.832676231
     0.833778324  0.666466547  0.833774955
     0.832754087  0.832859839  0.666214412
     0.916700233  0.750035890  0.916727123
     0.748994963  0.749688927  0.748936665
     0.749742382  0.916462205  0.916190181
     0.916200309  0.916486596  0.749775994
     0.500146271  0.666664285  0.499990754

  ion indices of the primitive-cell ions
   primitive index   ion index
                 1           1
                 2           2
                 3           3
                 4           4
                 5           5
                 6           6
                 7           7
                 8           8
                 9           9
                10          10
                11          11
                12          12
                13          13
                14          14
                15          15
                16          16
                17          17
                18          18
                19          19
                20          20
                21          21
                22          22
                23          23
                24          24
                25          25
                26          26
                27          27
                28          28
                29          29
                30          30
                31          31
                32          32
                33          33
                34          34
                35          35
                36          36
                37          37
                38          38
                39          39
                40          40
                41          41
                42          42
                43          43
                44          44
                45          45
                46          46
                47          47
                48          48
                49          49
                50          50
                51          51
                52          52
                53          53
                54          54
                55          55
                56          56
                57          57
                58          58
                59          59
                60          60
                61          61
                62          62
                63          63
                64          64
                65          65
                66          66
                67          67
                68          68
                69          69
                70          70
                71          71
                72          72
                73          73
                74          74
                75          75
                76          76
                77          77
                78          78
                79          79
                80          80
                81          81
                82          82
                83          83
                84          84
                85          85
                86          86
                87          87
                88          88
                89          89
                90          90
                91          91
                92          92
                93          93
                94          94
                95          95
                96          96
                97          97
                98          98
                99          99
               100         100
               101         101
               102         102
               103         103
               104         104
               105         105
               106         106
               107         107
               108         108
               109         109
               110         110
               111         111
               112         112
               113         113
               114         114
               115         115
               116         116
               117         117
               118         118
               119         119
               120         120
               121         121
               122         122
               123         123
               124         124
               125         125
               126         126
               127         127
               128         128
               129         129
               130         130
               131         131
               132         132
               133         133
               134         134
               135         135
               136         136
               137         137
               138         138
               139         139
               140         140
               141         141
               142         142
               143         143
               144         144
               145         145
               146         146
               147         147
               148         148
               149         149
               150         150
               151         151
               152         152
               153         153
               154         154
               155         155
               156         156
               157         157
               158         158
               159         159
               160         160
               161         161
               162         162
               163         163
               164         164
               165         165
               166         166
               167         167
               168         168
               169         169
               170         170
               171         171
               172         172
               173         173
               174         174
               175         175
               176         176
               177         177
               178         178
               179         179
               180         180
               181         181
               182         182
               183         183
               184         184
               185         185
               186         186
               187         187
               188         188
               189         189
               190         190
               191         191
               192         192
               193         193
               194         194
               195         195
               196         196
               197         197
               198         198
               199         199
               200         200
               201         201
               202         202
               203         203
               204         204
               205         205
               206         206
               207         207
               208         208
               209         209
               210         210
               211         211
               212         212

----------------------------------------------------------------------------------------

 
 
 KPOINTS: 1 x 1 x 1 k-mesh (automatic generation o

Automatic generation of k-mesh.
 Grid dimensions read from file:
 generate k-points for:    1    1    1

 Generating k-lattice:

  Cartesian coordinates                     Fractional coordinates (reciprocal lattice)
     0.094029147  0.000000000  0.000000000     1.000000000  0.000000000  0.000000000
     0.000000000  0.094029147  0.000000000     0.000000000  1.000000000  0.000000000
     0.000000000  0.000000000  0.094029147     0.000000000  0.000000000  1.000000000

  Length of vectors
     0.094029147  0.094029147  0.094029147

  Shift w.r.t. Gamma in fractional coordinates (k-lattice)
     0.000000000  0.000000000  0.000000000

 
 Subroutine IBZKPT returns following result:
 ===========================================
 
 Found      1 irreducible k-points:
 
 Following reciprocal coordinates:
            Coordinates               Weight
  0.000000  0.000000  0.000000      1.000000
 
 Following cartesian coordinates:
            Coordinates               Weight
  0.000000  0.000000  0.000000      1.000000
 


--------------------------------------------------------------------------------------------------------




 Dimension of arrays:
   k-points           NKPTS =      1   k-points in BZ     NKDIM =      1   number of bands    NBANDS=    642
   number of dos      NEDOS =    301   number of ions     NIONS =    212
   non local maximal  LDIM  =      8   non local SUM 2l+1 LMDIM =     32
   total plane-waves  NPLWV = 343000
   max r-space proj   IRMAX =      1   max aug-charges    IRDMAX=  17079
   dimension x,y,z NGX =    70 NGY =   70 NGZ =   70
   dimension x,y,z NGXF=   140 NGYF=  140 NGZF=  140
   support grid    NGXF=   140 NGYF=  140 NGZF=  140
   ions per type =             211   1
   NGX,Y,Z   is equivalent  to a cutoff of  10.94, 10.94, 10.94 a.u.
   NGXF,Y,Z  is equivalent  to a cutoff of  21.88, 21.88, 21.88 a.u.

 SYSTEM =  unknown system                          
 POSCAR =  3D\Atomistic                            

 Startparameter for this run:
   NWRITE =      2    write-flag & timer
   PREC   = accura    normal or accurate (medium, high low for compatibility)
   ISTART =      1    job   : 0-new  1-cont  2-samecut
   ICHARG =      0    charge: 1-file 2-atom 10-const
   ISPIN  =      2    spin polarized calculation?
   LNONCOLLINEAR =      F non collinear calculations
   LSORBIT =      F    spin-orbit coupling
   INIWAV =      1    electr: 0-lowe 1-rand  2-diag
   LASPH  =      F    aspherical Exc in radial PAW
 Electronic Relaxation 1
   ENCUT  =  370.0 eV  27.19 Ry    5.21 a.u.  16.68 16.68 16.68*2*pi/ulx,y,z
   ENINI  =  370.0     initial cutoff
   ENAUG  =  740.0 eV  augmentation charge cutoff
   NELM   =     60;   NELMIN=  2; NELMDL=  0     # of ELM steps 
   EDIFF  = 0.1E-04   stopping-criterion for ELM
   LREAL  =      F    real-space projection
   NLSPLINE    = F    spline interpolate recip. space projectors
   LCOMPAT=      F    compatible to vasp.4.4
   GGA_COMPAT  = T    GGA compatible to vasp.4.4-vasp.4.6
   LMAXPAW     = -100 max onsite density
   LMAXMIX     =    2 max onsite mixed and CHGCAR
   VOSKOWN=      0    Vosko Wilk Nusair interpolation
   ROPT   =    0.00000   0.00000
 Ionic relaxation
   EDIFFG = -.1E-01   stopping-criterion for IOM
   NSW    =      0    number of steps for IOM
   NBLOCK =      1;   KBLOCK =      1    inner block; outer block 
   IBRION =     -1    ionic relax: 0-MD 1-quasi-New 2-CG
   NFREE  =      1    steps in history (QN), initial steepest desc. (CG)
   ISIF   =      1    stress and relaxation
   IWAVPR =     10    prediction:  0-non 1-charg 2-wave 3-comb
   ISYM   =      0    0-nonsym 1-usesym 2-fastsym
   LCORR  =      T    Harris-Foulkes like correction to forces

   POTIM  = 0.2000    time-step for ionic-motion
   TEIN   =    0.0    initial temperature
   TEBEG  =    0.0;   TEEND  =   0.0 temperature during run
   SMASS  =  -3.00    Nose mass-parameter (am)
   estimated Nose-frequenzy (Omega)   =  0.10E-29 period in steps = 0.31E+47 mass=  -0.258E-26a.u.
   SCALEE = 1.0000    scale energy and forces
   NPACO  =    256;   APACO  = 16.0  distance and # of slots for P.C.
   PSTRESS=    0.0 pullay stress

  Mass of Ions in am
   POMASS =  12.01229.00
  Ionic Valenz
   ZVAL   =   4.00 13.00
  Atomic Wigner-Seitz radii
   RWIGS  =  -1.00 -1.00
  virtual crystal weights 
   VCA    =   1.00  1.00
   NELECT =     857.0000    total number of electrons
   NUPDOWN=      -1.0000    fix difference up-down

 DOS related values:
   EMIN   =  10.00;   EMAX   =-10.00  energy-range for DOS
   EFERMI =   0.00
   ISMEAR =     0;   SIGMA  =   0.01  broadening in eV -4-tet -1-fermi 0-gaus

 Electronic relaxation 2 (details)
   IALGO  =     58    algorithm
   LDIAG  =      T    sub-space diagonalisation (order eigenvalues)
   LSUBROT=      F    optimize rotation matrix (better conditioning)
   TURBO    =      0    0=normal 1=particle mesh
   IRESTART =      0    0=no restart 2=restart with 2 vectors
   NREBOOT  =      0    no. of reboots
   NMIN     =      0    reboot dimension
   EREF     =   0.00    reference energy to select bands
   IMIX   =      4    mixing-type and parameters
     AMIX     =   0.40;   BMIX     =  1.00
     AMIX_MAG =   1.60;   BMIX_MAG =  1.00
     AMIN     =   0.10
     WC   =   100.;   INIMIX=   1;  MIXPRE=   1;  MAXMIX= -45

 Intra band minimization:
   WEIMIN = 0.0000     energy-eigenvalue tresh-hold
   EBREAK =  0.39E-08  absolut break condition
   DEPER  =   0.30     relativ break condition  

   TIME   =   0.40     timestep for ELM

  volume/ion in A,a.u.               =       5.67        38.29
  Fermi-wavevector in a.u.,A,eV,Ry     =   1.462169  2.763099 29.088419  2.137938
  Thomas-Fermi vector in A             =   2.578414
 
 Write flags
   LWAVE        =      T    write WAVECAR
   LDOWNSAMPLE  =      F    k-point downsampling of WAVECAR
   LCHARG       =      T    write CHGCAR
   LVTOT        =      F    write LOCPOT, total local potential
   LVHAR        =      F    write LOCPOT, Hartree potential only
   LELF         =      F    write electronic localiz. function (ELF)
   LORBIT       =      0    0 simple, 1 ext, 2 COOP (PROOUT), +10 PAW based schemes


 Dipole corrections
   LMONO  =      F    monopole corrections only (constant potential shift)
   LDIPOL =      F    correct potential (dipole corrections)
   IDIPOL =      0    1-x, 2-y, 3-z, 4-all directions 
   EPSILON=  1.0000000 bulk dielectric constant

 Exchange correlation treatment:
   GGA     =    PE    GGA type
   LEXCH   =     8    internal setting for exchange type
   VOSKOWN=      0    Vosko Wilk Nusair interpolation
   LHFCALC =     F    Hartree Fock is set to
   LHFONE  =     F    Hartree Fock one center treatment
   AEXX    =    0.0000 exact exchange contribution

 Linear response parameters
   LEPSILON=     F    determine dielectric tensor
   LRPA    =     F    only Hartree local field effects (RPA)
   LNABLA  =     F    use nabla operator in PAW spheres
   LVEL    =     F    velocity operator in full k-point grid
   LINTERFAST=   F  fast interpolation
   KINTER  =     0    interpolate to denser k-point grid
   CSHIFT  =0.1000    complex shift for real part using Kramers Kronig
   OMEGAMAX=  -1.0    maximum frequency
   DEG_THRESHOLD= 0.2000000E-02 threshold for treating states as degnerate
   RTIME   =   -0.100 relaxation time in fs
  (WPLASMAI=    0.000 imaginary part of plasma frequency in eV, 0.658/RTIME)
   DFIELD  = 0.0000000 0.0000000 0.0000000 field for delta impulse in time
 
 Orbital magnetization related:
   ORBITALMAG=     F  switch on orbital magnetization
   LCHIMAG   =     F  perturbation theory with respect to B field
   DQ        =  0.001000  dq finite difference perturbation B field
   LLRAUG    =     F  two centre corrections for induced B field



--------------------------------------------------------------------------------------------------------


 Static calculation
 charge density and potential will be updated during run
 spin polarized calculation
 Conjugate gradient for all bands (Freysoldt, et al. PRB 79, 241103 (2009))
 preconditioned conjugated gradient                                        
 perform sub-space diagonalisation
    before iterative eigenvector-optimisation
 modified Broyden-mixing scheme, WC =      100.0
 initial mixing is a Kerker type mixing with AMIX =  0.4000 and BMIX =      1.0000
 Hartree-type preconditioning will be used
 using additional bands          213
 reciprocal scheme for non local part
 use partial core corrections
 no Harris-corrections to forces 
 use gradient corrections 
 use of overlap-Matrix (Vanderbilt PP)
 Gauss-broadening in eV      SIGMA  =   0.01


--------------------------------------------------------------------------------------------------------


  energy-cutoff  :      370.00
  volume of cell :     1202.85
      direct lattice vectors                 reciprocal lattice vectors
    10.635000229  0.000000000  0.000000000     0.094029147  0.000000000  0.000000000
     0.000000000 10.635000229  0.000000000     0.000000000  0.094029147  0.000000000
     0.000000000  0.000000000 10.635000229     0.000000000  0.000000000  0.094029147

  length of vectors
    10.635000229 10.635000229 10.635000229     0.094029147  0.094029147  0.094029147


 
 old parameters found on file WAVECAR:
  energy-cutoff  :      370.00
  volume of cell :     1202.85
      direct lattice vectors                 reciprocal lattice vectors
    10.635000229  0.000000000  0.000000000     0.094029147  0.000000000  0.000000000
     0.000000000 10.635000229  0.000000000     0.000000000  0.094029147  0.000000000
     0.000000000  0.000000000 10.635000229     0.000000000  0.000000000  0.094029147

  length of vectors

 
 k-points in units of 2pi/SCALE and weight: 1 x 1 x 1 k-mesh (automatic generation o
   0.00000000  0.00000000  0.00000000       1.000
 
 k-points in reciprocal lattice and weights: 1 x 1 x 1 k-mesh (automatic generation o
   0.00000000  0.00000000  0.00000000       1.000
 
 position of ions in fractional coordinates (direct lattice) 
   0.99999926  0.00006357  0.99999925
   0.99999926  0.16666654  0.16661575
   0.16696039  0.99977418  0.16694874
   0.16661825  0.16666653  0.99999917
   0.25037517  0.08280027  0.25036758
   0.08343495  0.08325365  0.08343106
   0.08326941  0.24989324  0.25002997
   0.25003091  0.24990262  0.08327132
   0.33323904  0.00012455  0.00041508
   0.33325414  0.16635952  0.16672762
   0.50014412  0.00016069  0.16648178
   0.50000071  0.16666674  0.99999835
   0.58323662  0.08330530  0.25000189
   0.41672017  0.08336057  0.08342700
   0.41676754  0.25003381  0.25000625
   0.58328244  0.24997310  0.08342647
   0.66676079  0.00012572  0.99958175
   0.66674482  0.16697509  0.16672634
   0.83376575  0.00040649  0.16623908
   0.83338080  0.16666668  0.99999919
   0.91672962  0.08344052  0.25002986
   0.74996906  0.08343129  0.08327092
   0.74962528  0.25053300  0.25036644
   0.91656443  0.25007980  0.08343095
   0.99999917  0.33326981  0.99999910
   0.99953197  0.49988608  0.16650221
   0.16623308  0.33292686  0.16623886
   0.16654343  0.49988921  0.99955809
   0.24960940  0.41663773  0.24967693
   0.08322753  0.41668898  0.08321992
   0.08287595  0.58333170  0.24961908
   0.24967270  0.58336339  0.08294469
   0.33323883  0.33320878  0.99958243
   0.33192421  0.49890811  0.16493423
   0.49985809  0.33317225  0.16648131
   0.50000070  0.50002148  0.99999944
   0.58268018  0.41826748  0.25131466
   0.41662467  0.41642909  0.08306051
   0.41622450  0.58354653  0.25050395
   0.58321718  0.58338595  0.08358989
   0.66676051  0.33320796  0.00041586
   0.66619046  0.50050354  0.16732361
   0.83303837  0.33355967  0.16694900
   0.83345564  0.49989043  0.00044002
   0.91620080  0.41684578  0.25022414
   0.74974285  0.41687057  0.08380803
   0.74899570  0.58364523  0.25106375
   0.91670067  0.58329731  0.08327079
   0.99999908  0.66666654  0.99999869
   0.00046387  0.83344801  0.16650341
   0.16621610  0.66646401  0.16622228
   0.16654329  0.83344385  0.00043975
   0.25100134  0.74969316  0.25106248
   0.08329734  0.75003650  0.08327075
   0.08379599  0.91648815  0.25022356
   0.25025730  0.91646221  0.08380789
   0.33339159  0.66666624  0.99999887
   0.33381100  0.83283122  0.16732235
   0.50000320  0.66666960  0.16651397
   0.50000116  0.83331192  0.99999827
   0.58379645  0.74980298  0.25048848
   0.41678429  0.74994792  0.08358893
   0.41732294  0.91506308  0.25131607
   0.58337826  0.91690683  0.08305729
   0.66660954  0.66666691  0.99999897
   0.66807448  0.83442955  0.16492942
   0.83377909  0.66686699  0.16622400
   0.83345565  0.83344332  0.99955781
   0.91711672  0.75000084  0.24962084
   0.75032842  0.74997176  0.08294359
   0.75038815  0.91669916  0.24967502
   0.91677144  0.91664440  0.08321993
   0.00044360  0.00016556  0.33323340
   0.99999965  0.16666675  0.50000083
   0.16643349  0.00020233  0.50015195
   0.16672728  0.16635595  0.33325274
   0.24999026  0.08331831  0.58321927
   0.08342687  0.08338758  0.41670479
   0.08342733  0.24994623  0.58329655
   0.24998878  0.25001352  0.41678277
   0.33395527  0.99894586  0.33396153
   0.33362125  0.16666635  0.50000147
   0.50000342  0.99906639  0.49999753
   0.50000070  0.16666744  0.33361539
   0.58313171  0.08267213  0.58314335
   0.41686966  0.08267258  0.41685894
   0.41686934  0.25066066  0.58314392
   0.58313132  0.25066162  0.41685961
   0.66783475  0.00077612  0.33221921
   0.66637981  0.16666693  0.50000144
   0.83356318  0.00020285  0.49985137
   0.83327225  0.16697826  0.33325386
   0.91657156  0.08338750  0.58329690
   0.75001281  0.08332356  0.41677949
   0.75001133  0.25001160  0.58322249
   0.91657194  0.24994601  0.41670455
   0.99955321  0.33316763  0.33323388
   0.99999655  0.49997170  0.50000166
   0.16643369  0.33313135  0.49985038
   0.16471997  0.49885578  0.33192993
   0.25121619  0.41823269  0.58273532
   0.08297200  0.41635933  0.41660765
   0.08350113  0.58336650  0.58324769
   0.25006044  0.58339319  0.41618420
   0.33216219  0.33256767  0.33222379
   0.32876314  0.49722620  0.49491411
   0.50000212  0.33426731  0.50000499
   0.49497312  0.49728026  0.32914924
   0.58310086  0.41919092  0.58298497
   0.41692198  0.41921563  0.41703821
   0.66604624  0.33438677  0.33396161
   0.67121493  0.49720157  0.50509312
   0.83356334  0.33313062  0.50015099
   0.83275430  0.50047344  0.33378756
   0.91702073  0.41636088  0.58339314
   0.74878273  0.41822967  0.41726840
   0.74991532  0.58339587  0.58381284
   0.91649139  0.58336776  0.41675546
   0.99999643  0.66666700  0.33333597
   0.99999691  0.83336168  0.50000104
   0.16627884  0.66666616  0.50000113
   0.16723763  0.83286170  0.33378599
   0.25006243  0.74993781  0.58381642
   0.08350140  0.74996659  0.41675506
   0.08297289  0.91697284  0.58339434
   0.25121598  0.91510106  0.41726667
   0.32829111  0.66126104  0.32860711
   0.32876263  0.83610799  0.50508709
   0.50504573  0.83604718  0.32914768
   0.41692571  0.91411387  0.58296209
   0.58310445  0.91414629  0.41701562
   0.67168013  0.67207328  0.32860984
   0.67121465  0.83613092  0.49490858
   0.83370730  0.66666691  0.50000109
   0.83526595  0.83448043  0.33193168
   0.91649175  0.74996585  0.58324729
   0.74991738  0.74994004  0.41618813
   0.74878285  0.91510368  0.58273378
   0.91702173  0.91697341  0.41660886
   0.99955318  0.00016506  0.66676730
   0.99999929  0.16666663  0.83338366
   0.16623392  0.00040560  0.83376002
   0.16672856  0.16697719  0.66674836
   0.25003125  0.08343082  0.91672680
   0.08327005  0.08343977  0.74997015
   0.08343519  0.25008003  0.91656765
   0.25037652  0.25053402  0.74963221
   0.33216435  0.00076270  0.66777717
   0.33325479  0.16697356  0.83327088
   0.49985847  0.00015954  0.83351701
   0.50000066  0.16666584  0.66638628
   0.58328218  0.08335991  0.91657088
   0.41676848  0.08329840  0.74999361
   0.41672050  0.24997368  0.91657025
   0.58323555  0.25002945  0.74999801
   0.66604586  0.99894603  0.66604029
   0.66674418  0.16635843  0.83327234
   0.83303783  0.99977340  0.83305023
   0.83327110  0.16635523  0.66674730
   0.91656418  0.08325339  0.91656777
   0.74962423  0.08279985  0.74963363
   0.74996871  0.24990232  0.91672738
   0.91672913  0.24989352  0.74997023
   0.00044367  0.33316876  0.66676766
   0.00046387  0.49988587  0.83349538
   0.16696100  0.33355984  0.83305038
   0.16723813  0.50047191  0.66621579
   0.25025790  0.41687144  0.91619019
   0.08379660  0.41684588  0.74977640
   0.08329777  0.58329701  0.91672714
   0.25100195  0.58363990  0.74893805
   0.33395597  0.33438922  0.66604008
   0.33381104  0.50050238  0.83267726
   0.50014375  0.33317471  0.83351653
   0.50504258  0.49729274  0.67085289
   0.58337823  0.41642698  0.91694081
   0.41732288  0.41827285  0.74868355
   0.41678438  0.58338546  0.91640954
   0.58379614  0.58353202  0.74951407
   0.66783250  0.33255992  0.66778180
   0.66807347  0.49890587  0.83507014
   0.83376493  0.33292779  0.83375984
   0.83526440  0.49885486  0.66806937
   0.91677137  0.41668906  0.91677834
   0.75038666  0.41663588  0.75032526
   0.75032835  0.58336205  0.91705492
   0.91711615  0.58333337  0.75037927
   0.99999651  0.66666612  0.66666561
   0.99953195  0.83344684  0.83349676
   0.16621689  0.66686867  0.83377663
   0.16472133  0.83447631  0.66807113
   0.24967282  0.74996974  0.91705374
   0.08287649  0.75000100  0.75038101
   0.08322753  0.91664373  0.91677839
   0.24961084  0.91669368  0.75032332
   0.32829358  0.67206967  0.67139448
   0.33192527  0.83442388  0.83506536
   0.50000308  0.66666351  0.83348722
   0.49497668  0.83604658  0.67085129
   0.58321703  0.74994745  0.91640869
   0.41622505  0.74978544  0.74949847
   0.41662473  0.91690356  0.91693763
   0.58268037  0.91506374  0.74868522
   0.67167758  0.66126276  0.67139170
   0.66619054  0.83282974  0.83267623
   0.83377832  0.66646655  0.83377496
   0.83275409  0.83285984  0.66621441
   0.91670023  0.75003589  0.91672712
   0.74899496  0.74968893  0.74893667
   0.74974238  0.91646220  0.91619018
   0.91620031  0.91648660  0.74977599
   0.50014627  0.66666429  0.49999075
 
 position of ions in cartesian coordinates  (Angst):
  10.63499238  0.00067604 10.63499223
  10.63499240  1.77249864  1.77195856
   1.77562378 10.63259860  1.77549986
   1.77198513  1.77249862 10.63499135
   2.66273998  0.88058087  2.66265924
   0.88733070  0.88540263  0.88728939
   0.88557018  2.65761469  2.65906882
   2.65907875  2.65771441  0.88559048
   3.54399727  0.00132456  0.00441438
   3.54415785  1.76923355  1.77314826
   5.31903281  0.00170889  1.77053380
   5.31750768  1.77250082 10.63498267
   6.20272156  0.88595189  2.65877020
   4.43181911  0.88653971  0.88724615
   4.43232284  2.65910963  2.65881653
   6.20320890  2.65846400  0.88724057
   7.09100121  0.00133705 10.63055210
   7.09083131  1.77578009  1.77313471
   8.86709895  0.00432307  1.76795270
   8.86300498  1.77250014 10.63499162
   9.74941975  0.88738996  2.65906763
   7.97592117  0.88729184  0.88558627
   7.97226506  2.66441854  2.66264718
   9.74766287  2.65959877  0.88728816
  10.63499136  3.54432447 10.63499071
  10.63002276  5.31628858  1.77075106
   1.76788882  3.54067723  1.76795031
   1.77118938  5.31632190 10.63030050
   2.65459600  4.43094235  2.65531419
   0.88512482  4.43148737  0.88504390
   0.88138572  6.20373278  2.65469895
   2.65526922  6.20406979  0.88211683
   3.54399499  3.54367544 10.63055936
   3.53001404  5.30588789  1.75407552
   5.31599092  3.54328693  1.77052880
   5.31750756  5.31772850 10.63499423
   6.19680385  4.44827478  2.67273143
   4.43080342  4.42872349  0.88334855
   4.42654763  6.20601747  2.66410959
   6.20251479  6.20430976  0.88897853
   7.09099818  3.54366675  0.00442265
   7.08493570  5.32285529  1.77948665
   8.85936323  3.54740712  1.77550268
   8.86380092  5.31633482  0.00467962
   9.74379574  4.43315497  2.66113379
   7.97351536  4.43341864  0.89129844
   7.96556949  6.20706716  2.67006305
   9.74911178  6.20336704  0.88558483
  10.63499043  7.08999880 10.63498634
   0.00493328  8.86371975  1.77076376
   1.76770824  7.08784485  1.76777401
   1.77118790  8.86367548  0.00467670
   2.66939926  7.97298689  2.67004953
   0.88586725  7.97663836  0.88558447
   0.89117032  9.74685172  2.66112757
   2.66148643  9.74657577  0.89129696
   3.54561966  7.08999565 10.63498824
   3.55008010  8.85716026  1.77947318
   5.31753415  7.09003133  1.77087614
   5.31751243  8.86227248 10.63498179
   6.20867541  7.97415491  2.66394502
   4.43250103  7.97569627  0.88896831
   4.43822957  9.73169605  2.67274649
   6.20422789  9.75130433  0.88331434
   7.08939261  7.09000270 10.63498926
   7.10497229  8.87415851  1.75402442
   8.86724086  7.09213056  1.76779231
   8.86380108  8.86366990 10.63029754
   9.75353652  7.97625908  2.65471766
   7.97974292  7.97594982  0.88210505
   7.98037817  9.74909575  2.65529385
   9.74986444  9.74851339  0.88504397
   0.00471774  0.00176075  3.54393724
  10.63499656  1.77250092  5.31750894
   1.77002020  0.00215180  5.31911610
   1.77314471  1.76919552  3.54414292
   2.65864652  0.88609021  6.20253704
   0.88724474  0.88682696  4.43165556
   0.88724972  2.65817820  6.20335891
   2.65863076  2.65889386  4.43248488
   3.55161440 10.62378947  3.55168093
   3.54806205  1.77249662  5.31751575
   5.31753647 10.62507134  5.31747387
   5.31750755  1.77250823  3.54799980
   6.20160592  0.87921811  6.20172964
   4.43340895  0.87922295  4.43329497
   4.43340556  2.66577621  6.20173576
   6.20160176  2.66578642  4.43330203
   7.10242271  0.00825406  3.53315135
   7.08694945  1.77250288  5.31751544
   8.86494461  0.00215729  5.31591943
   8.86185062  1.77581384  3.54415485
   9.74773870  0.88682603  6.20336264
   7.97638636  0.88614606  4.43244997
   7.97637066  2.65887339  6.20257127
   9.74774276  2.65817589  4.43165296
  10.63024857  3.54323781  3.54394234
  10.63496351  5.31719918  5.31751778
   1.77002238  3.54285201  5.31590891
   1.75179693  5.30533134  3.53007488
   2.67168423  4.44790472  6.19739025
   0.88240725  4.42798162  4.43062246
   0.88803457  6.20410289  6.20283936
   2.65939287  6.20438671  4.42611910
   3.53254499  3.53685725  3.53320006
   3.49639608  5.28800077  5.26341164
   5.31752265  3.55493296  5.31755317
   5.26403927  5.28857570  3.50050227
   6.20127782  4.45809549  6.20004530
   4.43396535  4.45835834  4.43520144
   7.08340187  3.55620339  3.55168185
   7.13837093  5.28773879  5.37166543
   8.86494636  3.54284421  5.31910587
   8.85634220  5.32253510  3.54983078
   9.75251572  4.42799808  6.20438615
   7.96330453  4.44787259  4.43764956
   7.97534964  6.20441523  6.20884973
   9.74688616  6.20411622  4.43219446
  10.63496226  7.09000374  3.54502816
  10.63496731  8.86280163  5.31751114
   1.76837548  7.08999476  5.31751216
   1.77857226  8.85748436  3.54981404
   2.65941401  7.97558879  6.20888772
   0.88803744  7.97589485  4.43219020
   0.88241671  9.75200633  6.20439899
   2.67168200  9.73209997  4.43763115
   3.49137604  7.03251130  3.49473666
   3.49639059  8.89200863  5.37160132
   5.37116145  8.89136200  3.50048562
   4.43400503  9.72160126  6.19980194
   6.20131593  9.72194596  4.43496119
   7.14331835  7.14749951  3.49476578
   7.13836798  8.89225253  5.26335290
   8.86647734  7.09000271  5.31751175
   8.88305356  8.87469958  3.53009352
   9.74688998  7.97588703  6.20283509
   7.97537148  7.97561248  4.42616091
   7.96330579  9.73212782  6.19737391
   9.75252629  9.75201248  4.43063529
  10.63024831  0.00175546  7.09107039
  10.63499270  1.77249969  8.86303545
   1.76789776  0.00431358  8.86703802
   1.77315825  1.77580245  7.09086891
   2.65908236  0.88728680  9.74938971
   0.88557704  0.88738194  7.97593270
   0.88733325  2.65960114  9.74769718
   2.66275437  2.66442937  7.97233871
   3.53256799  0.00811127  7.10181036
   3.54416482  1.77576387  8.86183596
   5.31599493  0.00169666  8.86445359
   5.31750716  1.77249130  7.08701823
   6.20320612  0.88653264  9.74773154
   4.43233289  0.88587850  7.97618219
   4.43182258  2.65847016  9.74772481
   6.20271025  2.65906326  7.97622899
   7.08339784 10.62379125  7.08333860
   7.09082448  1.76922192  8.86185154
   8.85935756 10.63259034  8.85948942
   8.86183838  1.76918794  7.09085765
   9.74766021  0.88539980  9.74769839
   7.97225384  0.88057638  7.97235381
   7.97591740  2.65771120  9.74939585
   9.74941450  2.65761759  7.97593353
   0.00471845  3.54324985  7.09107418
   0.00493322  5.31628639  8.86422361
   1.77563026  3.54740900  8.85949103
   1.77857760  5.32251887  7.08520512
   2.66149278  4.43342781  9.74368293
   0.89117687  4.43315600  7.97387214
   0.88587181  6.20336388  9.74939337
   2.66940584  6.20701051  7.96495632
   3.55162181  3.55622939  7.08333643
   3.55008051  5.32284293  8.85552281
   5.31902892  3.54331310  8.86444847
   5.37112795  5.28870840  7.13452063
   6.20422756  4.42870098  9.75166576
   4.43822888  4.44833184  7.96224972
   4.43250195  6.20430445  9.74601569
   6.20867205  6.20586312  7.97108227
   7.10239880  3.53677482  7.10185964
   7.10496154  5.30586403  8.88097112
   8.86709019  3.54068707  8.86703607
   8.88303710  5.30532159  7.10491795
   9.74986368  4.43148820  9.74993789
   7.98036230  4.43092265  7.97970931
   7.97974222  6.20405556  9.75287929
   9.75353043  6.20375057  7.98028374
  10.63496313  7.08999431  7.08998886
  10.63002255  8.86370730  8.86423822
   1.76771665  7.09214842  8.86721468
   1.75181135  8.87465578  7.10493659
   2.65527045  7.97592839  9.75286674
   0.88139151  7.97626081  7.98030225
   0.88512483  9.74850625  9.74993834
   2.65461129  9.74903754  7.97968873
   3.49140231  7.14746105  7.14028040
   3.53002531  8.87409813  8.88092032
   5.31753286  7.08996656  8.86413683
   5.26407706  8.89135559  7.13450361
   6.20251325  7.97569130  9.74600659
   4.42655351  7.97396828  7.97091637
   4.43080409  9.75126958  9.75163190
   6.19680588  9.73170306  7.96226748
   7.14329122  7.03252963  7.14025093
   7.08493654  8.85714453  8.85551190
   8.86723266  7.08787188  8.86719684
   8.85633991  8.85746458  7.08519042
   9.74910718  7.97663186  9.74939316
   7.96556160  7.97294191  7.96494161
   7.97351041  9.74657576  9.74368279
   9.74379050  9.74683515  7.97386787
   5.31905571  7.08997482  5.31740178
 


--------------------------------------------------------------------------------------------------------


 use parallel FFT for orbitals z direction half grid
 k-point   1 :   0.0000 0.0000 0.0000  plane waves:    9775

 maximum and minimum number of plane-waves per node :      1225     1219

 maximum number of plane-waves:      9775
 maximum index in each direction: 
   IXMAX=   16   IYMAX=   16   IZMAX=   16
   IXMIN=  -16   IYMIN=  -16   IZMIN=    0


 parallel 3D FFT for wavefunctions:
    minimum data exchange during FFTs selected (reduces bandwidth)
 parallel 3D FFT for charge:
    minimum data exchange during FFTs selected (reduces bandwidth)


 total amount of memory used by VASP MPI-rank0    81676. kBytes
=======================================================================

   base      :      30000. kBytes
   nonl-proj :       4778. kBytes
   fftplans  :       4899. kBytes
   grid      :      13063. kBytes
   one-center:       1327. kBytes
   wavefun   :      27609. kBytes
 
     INWAV:  cpu time    0.4172: real time    0.5186
 Broyden mixing: mesh for mixing (old mesh)
   NGX = 33   NGY = 33   NGZ = 33
  (NGX  =140   NGY  =140   NGZ  =140)
  gives a total of  35937 points

 charge density for first step will be calculated from the start-wavefunctions


--------------------------------------------------------------------------------------------------------


 Maximum index for augmentation-charges          771 (set IRDMAX)


--------------------------------------------------------------------------------------------------------


 initial charge from wavefunction
 First call to EWALD:  gamma=   0.167
 Maximum number of real-space cells 3x 3x 3
 Maximum number of reciprocal cells 3x 3x 3

    FEWALD:  cpu time    0.0107: real time    0.0168


--------------------------------------- Iteration      1(   1)  ---------------------------------------


    POTLOK:  cpu time    0.1727: real time    0.1883
    SETDIJ:  cpu time    0.0583: real time    0.0628
    TRIAL :  cpu time    3.5225: real time    3.7982
    CORREC:  cpu time    0.9764: real time    1.0395
    CHARGE:  cpu time    0.1824: real time    0.1965
    --------------------------------------------
      LOOP:  cpu time    4.9236: real time    5.3092

 eigenvalue-minimisations  :     0
 total energy-change (2. order) :-0.1915720E+04  (-0.1082520E-05)
 number of electron     857.0000030 magnetization       1.0000001
 augmentation part       18.2940016 magnetization       0.0219438

 Free energy of the ion-electron system (eV)
  ---------------------------------------------------
  alpha Z        PSCENC =      3217.87765133
  Ewald energy   TEWEN  =    -38019.32558019
  -Hartree energ DENC   =     -2938.14906441
  -exchange      EXHF   =         0.00000000
  -V(xc)+E(xc)   XCENC  =      3012.52367312
  PAW double counting   =     87799.09842067   -87922.17312687
  entropy T*S    EENTRO =        -0.00000000
  eigenvalues    EBANDS =       715.93250270
  atomic energy  EATOM  =     32218.49575402
  ---------------------------------------------------
  free energy    TOTEN  =     -1915.71976963 eV

  energy without entropy =    -1915.71976963  energy(sigma->0) =    -1915.71976963


--------------------------------------------------------------------------------------------------------




--------------------------------------- Iteration      1(   2)  ---------------------------------------


    POTLOK:  cpu time    0.1574: real time    0.1735
    SETDIJ:  cpu time    0.0515: real time    0.0518
    TRIAL :  cpu time    3.3479: real time    3.5907
    CORREC:  cpu time    0.9159: real time    0.9953
    EDDIAG:  cpu time    0.5745: real time    0.6100
    CHARGE:  cpu time    0.1640: real time    0.1751
    --------------------------------------------
      LOOP:  cpu time    5.2121: real time    5.5997

 eigenvalue-minimisations  :     0
 total energy-change (2. order) :-0.1071174E-05  (-0.5431972E-06)
 number of electron     857.0000030 magnetization       1.0000001
 augmentation part       18.2940255 magnetization       0.0219414

 Free energy of the ion-electron system (eV)
  ---------------------------------------------------
  alpha Z        PSCENC =      3217.87765133
  Ewald energy   TEWEN  =    -38019.32558019
  -Hartree energ DENC   =     -2938.14262893
  -exchange      EXHF   =         0.00000000
  -V(xc)+E(xc)   XCENC  =      3012.52366106
  PAW double counting   =     87799.06998374   -87922.14500270
  entropy T*S    EENTRO =        -0.00000000
  eigenvalues    EBANDS =       715.92639097
  atomic energy  EATOM  =     32218.49575402
  ---------------------------------------------------
  free energy    TOTEN  =     -1915.71977070 eV

  energy without entropy =    -1915.71977070  energy(sigma->0) =    -1915.71977070


--------------------------------------------------------------------------------------------------------


  average scaling for gradient   1.0228


 average (electrostatic) potential at core
  the test charge radii are     0.6991  1.1967
  (the norm of the test charge is              1.0000)
       1 -45.3451       2 -45.3427       3 -45.2719       4 -45.3427       5 -45.2528
       6 -45.3264       7 -45.3175       8 -45.3175       9 -45.2932      10 -45.3039
      11 -45.2098      12 -45.2765      13 -45.2595      14 -45.2676      15 -45.2610
      16 -45.2672      17 -45.2922      18 -45.3027      19 -45.3682      20 -45.3421
      21 -45.3171      22 -45.3167      23 -45.2520      24 -45.3261      25 -45.3450
      26 -45.2949      27 -45.3691      28 -45.2978      29 -45.2950      30 -45.3198
      31 -45.2441      32 -45.2480      33 -45.2932      34 -45.3334      35 -45.2105
      36 -45.2409      37 -45.0781      38 -45.2466      39 -45.1366      40 -45.1886
      41 -45.2922      42 -45.1370      43 -45.2711      44 -45.2967      45 -45.2495
      46 -45.2500      47 -45.1089      48 -45.2699      49 -45.2845      50 -45.2950
      51 -45.2425      52 -45.2978      53 -45.1117      54 -45.2707      55 -45.2501
      56 -45.2509      57 -45.2461      58 -45.1378      59 -45.1758      60 -45.2409
      61 -45.1325      62 -45.1891      63 -45.0778      64 -45.2453      65 -45.2452
      66 -45.3305      67 -45.2402      68 -45.2967      69 -45.2436      70 -45.2463
      71 -45.2933      72 -45.3194      73 -45.2910      74 -45.2773      75 -45.2152
      76 -45.3044      77 -45.2610      78 -45.2677      79 -45.2677      80 -45.2610
      81 -45.1282      82 -45.2510      83 -45.1957      84 -45.2499      85 -45.1945
      86 -45.1948      87 -45.1948      88 -45.1945      89 -45.3948      90 -45.2502
      91 -45.2136      92 -45.3032      93 -45.2670      94 -45.2593      95 -45.2594
      96 -45.2670      97 -45.2907      98 -45.2391      99 -45.2152     100 -45.3179
     101 -45.0833     102 -45.2428     103 -45.1872     104 -45.1237     105 -45.3988
     106 -44.2898     107 -45.1958     108 -44.2604     109 -45.1808     110 -45.1846
     111 -45.1276     112 -44.2841     113 -45.2137     114 -45.1379     115 -45.2424
     116 -45.0814     117 -45.1226     118 -45.1866     119 -45.2432     120 -45.2391
     121 -45.1711     122 -45.1396     123 -45.1239     124 -45.1872     125 -45.2429
     126 -45.0834     127 -44.4521     128 -44.2902     129 -44.2567     130 -45.1848
     131 -45.1806     132 -44.4422     133 -44.2838     134 -45.1703     135 -45.3181
     136 -45.1866     137 -45.1224     138 -45.0813     139 -45.2423     140 -45.2908
     141 -45.3427     142 -45.3691     143 -45.3044     144 -45.3175     145 -45.3175
     146 -45.3264     147 -45.2528     148 -45.3990     149 -45.3039     150 -45.2105
     151 -45.2499     152 -45.2672     153 -45.2610     154 -45.2677     155 -45.2595
     156 -45.1275     157 -45.3027     158 -45.2712     159 -45.3033     160 -45.3261
     161 -45.2520     162 -45.3167     163 -45.3171     164 -45.2910     165 -45.2951
     166 -45.2719     167 -45.1396     168 -45.2509     169 -45.2501     170 -45.2708
     171 -45.1117     172 -45.1281     173 -45.1378     174 -45.2098     175 -44.2567
[...]
     10.63499      0.00068     10.63499         0.000083     -0.001908     -0.000040
     10.63499      1.77250      1.77196         0.000102     -0.000001      0.003140
      1.77562     10.63260      1.77550         0.000414     -0.000437      0.000481
      1.77199      1.77250     10.63499         0.003456     -0.000009     -0.000054
      2.66274      0.88058      2.66266         0.000067     -0.000498     -0.000104
      0.88733      0.88540      0.88729         0.000582      0.000983      0.000171
      0.88557      2.65761      2.65907         0.002463      0.000633      0.002338
      2.65908      2.65771      0.88559         0.002751      0.000552      0.002076
      3.54400      0.00132      0.00441        -0.000069      0.001357     -0.000101
      3.54416      1.76923      1.77315         0.000324     -0.000431     -0.000170
      5.31903      0.00171      1.77053        -0.001884     -0.001323      0.001132
      5.31751      1.77250     10.63498        -0.000173     -0.000009     -0.000048
      6.20272      0.88595      2.65877        -0.001789      0.000721      0.001487
      4.43182      0.88654      0.88725        -0.002476      0.000893     -0.000033
      4.43232      2.65911      2.65882         0.001782     -0.000094      0.002057
      6.20321      2.65846      0.88724         0.002377     -0.000889     -0.000135
      7.09100      0.00134     10.63055        -0.000200      0.001388     -0.000140
      7.09083      1.77578      1.77313        -0.000650      0.000644     -0.000339
      8.86710      0.00432      1.76795        -0.002897     -0.001794      0.002692
      8.86300      1.77250     10.63499        -0.003349     -0.000012     -0.000045
      9.74942      0.88739      2.65907        -0.002163     -0.000459      0.002209
      7.97592      0.88729      0.88559        -0.002728     -0.000511      0.001971
      7.97227      2.66442      2.66265         0.000004      0.000469     -0.000268
      9.74766      2.65960      0.88729        -0.000309     -0.000955      0.000183
     10.63499      3.54432     10.63499         0.000084      0.001907     -0.000035
     10.63002      5.31629      1.77075        -0.000119     -0.000854     -0.001735
      1.76789      3.54068      1.76795         0.002980      0.001852      0.002811
      1.77119      5.31632     10.63030        -0.001720     -0.000832     -0.000314
      2.65460      4.43094      2.65531        -0.000290     -0.000682     -0.000017
      0.88512      4.43149      0.88504         0.002086     -0.000238      0.001802
      0.88139      6.20373      2.65470        -0.000526      0.000995      0.000762
      2.65527      6.20407      0.88212         0.000462      0.001121     -0.000631
      3.54399      3.54368     10.63056        -0.000017     -0.001360     -0.000017
      3.53001      5.30589      1.75408        -0.001073      0.000498     -0.002627
      5.31599      3.54329      1.77053         0.001636      0.001158      0.001002
      5.31751      5.31773     10.63499         0.000023      0.000487     -0.000102
      6.19680      4.44827      2.67273        -0.001887     -0.001017     -0.001830
      4.43080      4.42872      0.88335         0.001171      0.000706     -0.000190
      4.42655      6.20602      2.66411         0.000268      0.003364     -0.000014
      6.20251      6.20431      0.88898        -0.000654      0.000600     -0.001860
      7.09100      3.54367      0.00442        -0.000156     -0.001393      0.000025
      7.08494      5.32286      1.77949         0.000492     -0.000314     -0.002434
      8.85936      3.54741      1.77550        -0.000326      0.000454      0.000443
      8.86380      5.31633      0.00468         0.001729     -0.000755      0.000310
      9.74380      4.43315      2.66113         0.000001     -0.002037     -0.000733
      7.97352      4.43342      0.89130         0.000554     -0.002092      0.000015
      7.96557      6.20707      2.67006         0.002522      0.000566     -0.002881
      9.74911      6.20337      0.88558         0.000539     -0.003116     -0.000589
     10.63499      7.09000     10.63499         0.000033      0.000014     -0.000038
      0.00493      8.86372      1.77076         0.000002      0.000912     -0.001634
      1.76771      7.08784      1.76777        -0.000563      0.001397     -0.000254
      1.77119      8.86368      0.00468        -0.001716      0.000891      0.000221
      2.66940      7.97299      2.67005        -0.002049     -0.000723     -0.001683
      0.88587      7.97664      0.88558        -0.000437      0.003203     -0.000509
      0.89117      9.74685      2.66113         0.000113      0.002134     -0.000784
      2.66149      9.74658      0.89130        -0.000569      0.002121      0.000055
      3.54562      7.09000     10.63499        -0.000321      0.000100     -0.000095
      3.55008      8.85716      1.77947        -0.000146      0.000246     -0.001843
      5.31753      7.09003      1.77088        -0.000201      0.000636     -0.001457
      5.31751      8.86227     10.63498        -0.000154     -0.000497     -0.000105
      6.20868      7.97415      2.66395         0.000468      0.000163     -0.003063
      4.43250      7.97570      0.88897         0.000479     -0.000575     -0.001499
      4.43823      9.73170      2.67275         0.002009     -0.000109     -0.000878
      6.20423      9.75130      0.88331        -0.001265     -0.000438     -0.000500
      7.08939      7.09000     10.63499         0.000340     -0.000097     -0.000128
      7.10497      8.87416      1.75402         0.000369      0.000270     -0.003719
      8.86724      7.09213      1.76779         0.000480     -0.001775     -0.000642
      8.86380      8.86367     10.63030         0.001744      0.000721     -0.000413
      9.75354      7.97626      2.65472         0.000456     -0.000964      0.000497
      7.97974      7.97595      0.88211        -0.000266     -0.000769     -0.001209
      7.98038      9.74910      2.65529         0.000034      0.001625     -0.000891
      9.74986      9.74851      0.88504        -0.001892      0.000342      0.001642
      0.00472      0.00176      3.54394        -0.000122      0.001395     -0.000107
     10.63500      1.77250      5.31751         0.000214     -0.000008      0.000086
      1.77002      0.00215      5.31912         0.001143     -0.001579     -0.001599
      1.77314      1.76920      3.54414        -0.000215     -0.000511      0.000371
      2.65865      0.88609      6.20254         0.001879     -0.000095     -0.001958
      0.88724      0.88683      4.43166         0.000173      0.000827     -0.002301
      0.88725      2.65818      6.20336         0.000151     -0.000860      0.002471
      2.65863      2.65889      4.43248         0.001955      0.000215      0.002084
      3.55161     10.62379      3.55168         0.000702     -0.000364      0.000626
      3.54806      1.77250      5.31752         0.001433      0.000001      0.000056
      5.31754     10.62507      5.31747        -0.000211     -0.002323     -0.000346
      5.31751      1.77251      3.54800        -0.000184      0.000064      0.001648
      6.20161      0.87922      6.20173        -0.001207      0.000159     -0.001056
      4.43341      0.87922      4.43329         0.000736      0.000093      0.001135
      4.43341      2.66578      6.20174         0.000808      0.000156     -0.001064
      6.20160      2.66579      4.43330        -0.001110     -0.000471      0.001099
      7.10242      0.00825      3.53315        -0.000235      0.002870     -0.000594
      7.08695      1.77250      5.31752        -0.001469     -0.000026      0.000046
      8.86494      0.00216      5.31592        -0.000915     -0.000940      0.001880
      8.86185      1.77581      3.54415         0.000409      0.000673      0.000417
      9.74774      0.88683      6.20336         0.000198      0.000912      0.002548
      7.97639      0.88615      4.43245        -0.001637      0.000696      0.001552
      7.97637      2.65887      6.20257        -0.001546     -0.000833     -0.001425
      9.74774      2.65818      4.43165         0.000185     -0.000897     -0.002390
     10.63025      3.54324      3.54394         0.000245     -0.001395     -0.000097
     10.63496      5.31720      5.31752         0.000048      0.000382     -0.000033
      1.77002      3.54285      5.31591         0.001114      0.001547      0.001700
      1.75180      5.30533      3.53007        -0.002622      0.000938     -0.000060
      2.67168      4.44790      6.19739        -0.000510      0.000862     -0.002462
      0.88241      4.42798      4.43062         0.000308      0.001061      0.001292
      0.88803      6.20410      6.20284        -0.000943      0.000629     -0.000707
      2.65939      6.20439      4.42612        -0.000569      0.001953      0.000741
      3.53254      3.53686      3.53320        -0.000706     -0.001087      0.000354
      3.49640      5.28800      5.26341        -0.001867      0.005074      0.002473
      5.31752      3.55493      5.31755        -0.000428      0.002233      0.000887
      5.26404      5.28858      3.50050         0.001343      0.001983     -0.000512
      6.20128      4.45810      6.20005        -0.000496      0.000739      0.001617
      4.43397      4.45836      4.43520         0.001414      0.004896      0.003384
      7.08340      3.55620      3.55168        -0.000413     -0.000465      0.000346
      7.13837      5.28774      5.37167        -0.001973      0.000635     -0.000827
      8.86495      3.54284      5.31911        -0.000931      0.000938     -0.001788
      8.85634      5.32254      3.54983         0.002183     -0.000373     -0.000513
      9.75252      4.42800      6.20439        -0.000034      0.000537     -0.001176
      7.96330      4.44787      4.43765         0.001623     -0.001204      0.001865
      7.97535      6.20442      6.20885        -0.000983      0.002270      0.000103
      9.74689      6.20412      4.43219         0.001613      0.000584      0.000680
     10.63496      7.09000      3.54503        -0.000035     -0.000069     -0.000215
     10.63497      8.86280      5.31751        -0.000012     -0.000394      0.000116
      1.76838      7.08999      5.31751        -0.000182     -0.000164      0.000264
      1.77857      8.85748      3.54981        -0.002029     -0.000078     -0.000018
      2.65941      7.97559      6.20889        -0.000040     -0.002548      0.000159
      0.88804      7.97589      4.43219        -0.001256     -0.000540      0.000740
      0.88242      9.75201      6.20440         0.000203     -0.000951     -0.001165
      2.67168      9.73210      4.43763        -0.000938     -0.000369      0.002519
      3.49138      7.03251      3.49474        -0.003162      0.002542     -0.000781
      3.49639      8.89201      5.37160        -0.001549     -0.005129     -0.001556
      5.37116      8.89136      3.50049        -0.001081     -0.002779     -0.000827
      4.43401      9.72160      6.19980         0.001900     -0.005387     -0.002653
      6.20132      9.72195      4.43496        -0.000086     -0.000320     -0.000806
      7.14332      7.14750      3.49477        -0.001234     -0.002292     -0.001799
      7.13837      8.89225      5.26335        -0.001729     -0.000555      0.001749
      8.86648      7.09000      5.31751         0.000592      0.000203      0.000321
      8.88305      8.87470      3.53009         0.001793      0.000053     -0.000492
      9.74689      7.97589      6.20284         0.001279     -0.000653     -0.000638
      7.97537      7.97561      4.42616        -0.000506     -0.001583      0.000828
      7.96331      9.73213      6.19737         0.001126      0.000682     -0.001820
      9.75253      9.75201      4.43064        -0.000171     -0.000646      0.001320
     10.63025      0.00176      7.09107         0.000285      0.001453      0.000123
     10.63499      1.77250      8.86304         0.000111     -0.000009     -0.003218
      1.76790      0.00431      8.86704         0.003014     -0.001829     -0.002854
      1.77316      1.77580      7.09087        -0.000264      0.000453     -0.000319
      2.65908      0.88729      9.74939         0.002789     -0.000642     -0.002206
      0.88558      0.88738      7.97593         0.002465     -0.000604     -0.002354
      0.88733      2.65960      9.74770         0.000583     -0.001029     -0.000303
      2.66275      2.66443      7.97234        -0.000037      0.000401      0.000145
      3.53257      0.00811      7.10181        -0.000633      0.000938     -0.000083
      3.54416      1.77576      8.86184         0.000308      0.000387      0.000130
      5.31599      0.00170      8.86445         0.001530     -0.001326     -0.001207
      5.31751      1.77249      7.08702        -0.000196     -0.000094     -0.001644
      6.20321      0.88653      9.74773         0.002386      0.000885      0.000040
      4.43233      0.88588      7.97618         0.001816     -0.000130     -0.002156
      4.43182      2.65847      9.74772        -0.002494     -0.000896     -0.000058
      6.20271      2.65906      7.97623        -0.001828     -0.000516     -0.001554
      7.08340     10.62379      7.08334        -0.000503      0.000165     -0.000557
      7.09082      1.76922      8.86185        -0.000634     -0.000631      0.000305
      8.85936     10.63259      8.85949        -0.000325     -0.000469     -0.000505
      8.86184      1.76919      7.09086         0.000472     -0.000653     -0.000384
      9.74766      0.88540      9.74770        -0.000285      0.000972     -0.000290
      7.97225      0.88058      7.97235         0.000099     -0.000394      0.000313
      7.97592      2.65771      9.74940        -0.002782      0.000599     -0.002093
      9.74941      2.65762      7.97593        -0.002151      0.000432     -0.002229
      0.00472      3.54325      7.09107        -0.000152     -0.001464      0.000134
      0.00493      5.31629      8.86422        -0.000028     -0.000898      0.001607
      1.77563      3.54741      8.85949         0.000444      0.000425     -0.000565
      1.77858      5.32252      7.08521        -0.001710      0.000186     -0.000188
      2.66149      4.43343      9.74368        -0.000645     -0.002195     -0.000180
      0.89118      4.43316      7.97387         0.000064     -0.002226      0.000833
      0.88587      6.20336      9.74939        -0.000434     -0.003214      0.000395
      2.66941      6.20701      7.96496        -0.001403      0.001099      0.001160
      3.55162      3.55623      7.08334         0.000753      0.000576     -0.000806
      3.55008      5.32284      8.85552         0.000145      0.000088      0.001308
      5.31903      3.54331      8.86445        -0.001786      0.001456     -0.001321
      5.37113      5.28871      7.13452        -0.000829      0.003258      0.001316
      6.20423      4.42870      9.75167        -0.001335      0.000672      0.000163
      4.43823      4.44833      7.96225         0.002276      0.000591      0.000496
      4.43250      6.20430      9.74602         0.000469      0.000598      0.001049
      6.20867      6.20586      7.97108         0.000274      0.000149      0.002032
      7.10240      3.53677      7.10186        -0.000285     -0.002768      0.000882
      7.10496      5.30586      8.88097         0.000205     -0.000011      0.003307
      8.86709      3.54069      8.86704        -0.002926      0.001786     -0.002728
      8.88304      5.30532      7.10492         0.001596      0.000110      0.000768
      9.74986      4.43149      9.74994        -0.001986     -0.000293     -0.001746
      7.98036      4.43092      7.97971        -0.000225     -0.001395      0.000847
      7.97974      6.20406      9.75288        -0.000519      0.000873      0.000819
      9.75353      6.20375      7.98028         0.000225      0.001062     -0.000549
     10.63496      7.08999      7.08999        -0.000063      0.000070      0.000248
     10.63002      8.86371      8.86424        -0.000097      0.000862      0.001724
      1.76772      7.09215      8.86721        -0.000348     -0.001222      0.000031
      1.75181      8.87466      7.10494        -0.002398     -0.001080      0.000298
      2.65527      7.97593      9.75287         0.000702     -0.001189      0.000252
      0.88139      7.97626      7.98030        -0.000299     -0.001059     -0.000805
      0.88512      9.74851      9.74994         0.002176      0.000199     -0.001897
      2.65461      9.74904      7.97969        -0.000004      0.000461     -0.000057
      3.49140      7.14746      7.14028        -0.002765     -0.002326      0.001183
      3.53003      8.87410      8.88092        -0.000893     -0.000730      0.002199
      5.31753      7.08997      8.86414        -0.000134     -0.000600      0.000251
      5.26408      8.89136      7.13450         0.001092     -0.002415      0.000935
      6.20251      7.97569      9.74601        -0.000638     -0.000613      0.001378
      4.42655      7.97397      7.97092         0.000501     -0.003572     -0.001064
      4.43080      9.75127      9.75163         0.001259     -0.000935     -0.000176
      6.19681      9.73170      7.96227        -0.002164      0.000504      0.001380
      7.14329      7.03253      7.14025        -0.001581      0.002200      0.002267
      7.08494      8.85714      8.85551         0.000164     -0.000080      0.001854
      8.86723      7.08787      8.86720         0.000237      0.001627      0.000386
      8.85634      8.85746      7.08519         0.001811      0.000207      0.000264
      9.74911      7.97663      9.74939         0.000540      0.003173      0.000482
      7.96556      7.97294      7.96494         0.001832     -0.000936      0.002315
      7.97351      9.74658      9.74368         0.000643      0.002163     -0.000128
      9.74379      9.74684      7.97387         0.000061      0.002129      0.000799
      5.31906      7.08997      5.31740         0.012575      0.000166      0.003422
 -----------------------------------------------------------------------------------
    total drift:                               -0.000604      0.000710     -0.000708


--------------------------------------------------------------------------------------------------------



  FREE ENERGIE OF THE ION-ELECTRON SYSTEM (eV)
  ---------------------------------------------------
  free  energy   TOTEN  =     -1915.71977070 eV

  energy  without entropy=    -1915.71977070  energy(sigma->0) =    -1915.71977070
 


--------------------------------------------------------------------------------------------------------


    POTLOK:  cpu time    0.2000: real time    0.2214


--------------------------------------------------------------------------------------------------------


 writing wavefunctions
     LOOP+:  cpu time   22.5791: real time   25.6116
    4ORBIT:  cpu time    0.0000: real time    0.0000

 total amount of memory used by VASP MPI-rank0    81676. kBytes
=======================================================================

   base      :      30000. kBytes
   nonl-proj :       4778. kBytes
   fftplans  :       4899. kBytes
   grid      :      13063. kBytes
   one-center:       1327. kBytes
   wavefun   :      27609. kBytes
 
  
  
 General timing and accounting informations for this job:
 ========================================================
  
                  Total CPU time used (sec):       33.503
                            User time (sec):       26.641
                          System time (sec):        6.861
                         Elapsed time (sec):       39.932
  
                   Maximum memory used (kb):      341088.
                   Average memory used (kb):          N/A
  
                          Minor page faults:       160555
                          Major page faults:            0
                 Voluntary context switches:         3567
