 vasp.6.2.1 16May21 (build Sep 27 2021 21:11:04) gamma-only                     
  
 executed on             LinuxIFC date 2023.05.04  07:58:40
 running   24 mpi-ranks, with    1 threads/rank
 distrk:  each k-point on   24 cores,    1 groups
 distr:  one band on NCORE=   8 cores,    3 groups


--------------------------------------------------------------------------------------------------------


 INCAR:
   GGA = PE
   ISTART = 1
   ISPIN = 2
   ENCUT = 370
   ENAUG = 740
   EDIFF = 1E-5
   IBRION = 2
   POTIM = 0.2
   ALGO = All
   NSW = 0
   EDIFFG = -1E-2
   ISMEAR = 0
   SIGMA = 0.01
   ISIF = 1
   LREAL = .FALSE.
   ISYM = 0
   PREC = Accurate
   LDAU = .TRUE.
   LDAUTYPE = 1
   LDAUL = -1 3
   LDAUU = 0.00 7
   LDAUJ = 0.00 1
   LDAUPRINT = 2
   LMAXMIX = 6
   NCORE = 8
   NELM = 60
   NWRITE = 2
   SYMPREC = 1.0e-8

 POTCAR:    PAW_PBE C 08Apr2002                   
 POTCAR:    PAW_PBE Pr 23Dec2003                  
 -----------------------------------------------------------------------------
|                                                                             |
|           W    W    AA    RRRRR   N    N  II  N    N   GGGG   !!!           |
|           W    W   A  A   R    R  NN   N  II  NN   N  G    G  !!!           |
|           W    W  A    A  R    R  N N  N  II  N N  N  G       !!!           |
|           W WW W  AAAAAA  RRRRR   N  N N  II  N  N N  G  GGG   !            |
|           WW  WW  A    A  R   R   N   NN  II  N   NN  G    G                |
|           W    W  A    A  R    R  N    N  II  N    N   GGGG   !!!           |
|                                                                             |
|     You use a magnetic or noncollinear calculation, but did not specify     |
|     the initial magnetic moment with the MAGMOM tag. Note that a            |
|     default of 1 will be used for all atoms. This ferromagnetic setup       |
|     may break the symmetry of the crystal, in particular it may rule        |
|     out finding an antiferromagnetic solution. Thence, we recommend         |
|     setting the initial magnetic moment manually or verifying carefully     |
|     that this magnetic setup is desired.                                    |
|                                                                             |
 -----------------------------------------------------------------------------

 POTCAR:    PAW_PBE C 08Apr2002                   
   SHA256 =  253f7b50bb8d59471dbedb8285d89021f4a42ed1a2c5d38a03a736e69125dd95 C/POTCAR              
   COPYR  = (c) Copyright 08Apr2002 Georg Kresse                                                    
   COPYR  = This file is part of the software VASP. Any use, copying, and all other rights are regul
   COPYR  = If you do not have a valid VASP license, you may not use, copy or distribute this file. 
   VRHFIN =C: s2p2                                                                                  
   LEXCH  = PE                                                                                      
   EATOM  =   147.1560 eV,   10.8157 Ry                                                             
                                                                                                    
   TITEL  = PAW_PBE C 08Apr2002                                                                     
   LULTRA =        F    use ultrasoft PP ?                                                          
   IUNSCR =        1    unscreen: 0-lin 1-nonlin 2-no                                               
   RPACOR =    1.200    partial core radius                                                         
   POMASS =   12.011; ZVAL   =    4.000    mass and valenz                                          
   RCORE  =    1.500    outmost cutoff radius                                                       
   RWIGS  =    1.630; RWIGS  =    0.863    wigner-seitz radius (au A)                               
   ENMAX  =  400.000; ENMIN  =  300.000 eV                                                          
   ICORE  =        2    local potential                                                             
   LCOR   =        T    correct aug charges                                                         
   LPAW   =        T    paw PP                                                                      
   EAUG   =  644.873                                                                                
   DEXC   =    0.000                                                                                
   RMAX   =    1.529    core radius for proj-oper                                                   
   RAUG   =    1.300    factor for augmentation sphere                                              
   RDEP   =    1.501    radius for radial grids                                                     
   RDEPT  =    1.300    core radius for aug-charge                                                  
                                                                                                    
   Atomic configuration                                                                             
    4 entries                                                                                       
     n  l   j            E        occ.                                                              
     1  0  0.50      -273.3789   2.0000                                                             
     2  0  0.50       -13.7508   2.0000                                                             
     2  1  0.50        -5.2854   2.0000                                                             
     3  2  1.50        -5.4423   0.0000                                                             
   Description                                                                                      
     l       E           TYP  RCUT    TYP  RCUT                                                     
     0    -13.7508458     23  1.200                                                                 
     0     -8.2022199     23  1.200                                                                 
     1     -5.2854383     23  1.500                                                                 
     1     34.0145650     23  1.500                                                                 
     2     -5.4423304      7  1.500                                                                 
  local pseudopotential read in
  partial core-charges read in
  partial kinetic energy density read in
  atomic valenz-charges read in
  non local Contribution for L=           0  read in
    real space projection operators read in
  non local Contribution for L=           0  read in
    real space projection operators read in
  non local Contribution for L=           1  read in
    real space projection operators read in
  non local Contribution for L=           1  read in
    real space projection operators read in
    PAW grid and wavefunctions read in
 
   number of l-projection  operators is LMAX  =           4
   number of lm-projection operators is LMMAX =           8
 
 POTCAR:    PAW_PBE Pr 23Dec2003                  
   SHA256 =  ebcd8a6c43bbf830c2eab3f7188f0d0e53e8e155a05b1bfc11640602897f077e Pr/POTCAR             
   COPYR  = (c) Copyright 23Dec2003 Georg Kresse                                                    
   COPYR  = This file is part of the software VASP. Any use, copying, and all other rights are regul
   COPYR  = If you do not have a valid VASP license, you may not use, copy or distribute this file. 
   VRHFIN =Pr : [core=Xe4]                                                                          
   LEXCH  = PE                                                                                      
   EATOM  =  1294.6665 eV,   95.1553 Ry                                                             
                                                                                                    
   TITEL  = PAW_PBE Pr 23Dec2003                                                                    
   LULTRA =        F    use ultrasoft PP ?                                                          
   IUNSCR =        1    unscreen: 0-lin 1-nonlin 2-no                                               
   RPACOR =    2.300    partial core radius                                                         
   POMASS =  140.907; ZVAL   =   13.000    mass and valenz                                          
   RCORE  =    2.700    outmost cutoff radius                                                       
   RWIGS  =    2.800; RWIGS  =    1.482    wigner-seitz radius (au A)                               
   ENMAX  =  272.941; ENMIN  =  204.706 eV                                                          
   RCLOC  =    1.903    cutoff for local pot                                                        
   LCOR   =        T    correct aug charges                                                         
   LPAW   =        T    paw PP                                                                      
   EAUG   =  578.020                                                                                
   DEXC   =    0.000                                                                                
   RMAX   =    2.755    core radius for proj-oper                                                   
   RAUG   =    1.300    factor for augmentation sphere                                              
   RDEP   =    2.816    radius for radial grids                                                     
   RDEPT  =    2.166    core radius for aug-charge                                                  
                                                                                                    
   Atomic configuration                                                                             
   14 entries                                                                                       
     n  l   j            E        occ.                                                              
     1  0  0.50    -41810.3934   2.0000                                                             
     2  0  0.50     -6731.1418   2.0000                                                             
     2  1  1.50     -6022.4876   6.0000                                                             
     3  0  0.50     -1458.2043   2.0000                                                             
     3  1  1.50     -1233.8862   6.0000                                                             
     3  2  2.50      -919.2566  10.0000                                                             
     4  0  0.50      -295.2681   2.0000                                                             
     4  1  1.50      -221.8430   6.0000                                                             
     4  2  2.50      -116.8418  10.0000                                                             
     5  0  0.50       -42.1589   2.0000                                                             
     6  0  0.50        -3.8068   2.0000                                                             
     5  1  1.50       -23.9655   6.0000                                                             
     5  2  2.50        -3.0008   1.0000                                                             
     4  3  2.50        -6.2311   2.0000                                                             
   Description                                                                                      
     l       E           TYP  RCUT    TYP  RCUT                                                     
     0    -42.1589404     23  1.550                                                                 
     0     -3.8068341     23  2.300                                                                 
     1    -23.9655292     23  2.400                                                                 
     1     27.2116520     23  2.400                                                                 
     2     -3.0008130     23  2.500                                                                 
     2     13.6058260     23  2.500                                                                 
     3     -6.2311419     23  2.700                                                                 
     3     -6.8029130     23  2.700                                                                 
  local pseudopotential read in
  partial core-charges read in
  partial kinetic energy density read in
  atomic valenz-charges read in
  non local Contribution for L=           0  read in
    real space projection operators read in
  non local Contribution for L=           0  read in
    real space projection operators read in
  non local Contribution for L=           1  read in
    real space projection operators read in
  non local Contribution for L=           1  read in
    real space projection operators read in
  non local Contribution for L=           2  read in
    real space projection operators read in
  non local Contribution for L=           2  read in
    real space projection operators read in
  non local Contribution for L=           3  read in
    real space projection operators read in
  non local Contribution for L=           3  read in
    real space projection operators read in
    PAW grid and wavefunctions read in
 
   number of l-projection  operators is LMAX  =           8
   number of lm-projection operators is LMMAX =          32
 
 -----------------------------------------------------------------------------
|                                                                             |
|               ----> ADVICE to this user running VASP <----                  |
|                                                                             |
|     You have a (more or less) 'large supercell' and for larger cells it     |
|     might be more efficient to use real-space projection operators.         |
|     Therefore, try LREAL= Auto in the INCAR file.                           |
|     Mind: For very accurate calculation, you might also keep the            |
|     reciprocal projection scheme (i.e. LREAL=.FALSE.).                      |
|                                                                             |
 -----------------------------------------------------------------------------

  PAW_PBE C 08Apr2002                   :
 energy of atom  1       EATOM= -147.1560
 kinetic energy error for atom=    0.0545 (will be added to EATOM!!)
  PAW_PBE Pr 23Dec2003                  :
 energy of atom  2       EATOM=-1294.6665
 kinetic energy error for atom=    0.0274 (will be added to EATOM!!)
 
 
 POSCAR: 3D\Atomistic
  positions in direct lattice
  velocities in cartesian coordinates
 exchange correlation table for  LEXCH =        8
   RHO(1)=    0.500       N(1)  =     2000
   RHO(2)=  100.500       N(2)  =     4000
 


--------------------------------------------------------------------------------------------------------


 ion  position               nearest neighbor table
   1  1.000  0.000  1.000- 161 1.53   6 1.54 195 1.54  72 1.54
   2  1.000  0.167  0.167-  24 1.53   7 1.54   6 1.54  21 1.54
   3  0.166  0.001  0.166-   6 1.53   5 1.54  56 1.54  55 1.54
   4  0.167  0.167  1.000- 147 1.53   8 1.54   6 1.54 145 1.54
   5  0.249  0.084  0.249-  81 1.53  76 1.53  10 1.53   3 1.54
   6  0.083  0.084  0.083-   3 1.53   1 1.54   2 1.54   4 1.54
   7  0.083  0.251  0.250-  76 1.53  97 1.54  27 1.54   2 1.54
   8  0.250  0.251  0.083-  10 1.53  27 1.54  33 1.54   4 1.54
   9  0.333  0.000  0.999- 145 1.53  56 1.53  14 1.54 203 1.54
  10  0.333  0.167  0.166-   8 1.53   5 1.53  14 1.54  15 1.54
  11  0.499  0.001  0.165-  63 1.52  14 1.53  64 1.54  13 1.54
  12  0.500  0.167  1.000-  14 1.53 155 1.53 153 1.54  16 1.54
  13  0.583  0.084  0.250-  89 1.53  18 1.53  84 1.54  11 1.54
  14  0.416  0.084  0.082-  11 1.53  12 1.53   9 1.54  10 1.54
  15  0.417  0.251  0.250-  35 1.53 105 1.53  84 1.53  10 1.54
  16  0.583  0.250  0.084-  41 1.53  18 1.53  35 1.53  12 1.54
  17  0.666  1.000  1.000-  64 1.53 153 1.53 211 1.54  22 1.54
  18  0.666  0.167  0.167-  16 1.53  13 1.53  23 1.54  22 1.54
  19  0.833  0.000  0.166-  22 1.53  21 1.53  72 1.54  71 1.54
  20  0.833  0.166  0.000- 163 1.53  22 1.53  24 1.54 161 1.54
  21  0.916  0.084  0.250-  73 1.53  19 1.53  92 1.54   2 1.54
  22  0.750  0.083  0.083-  19 1.53  20 1.53  17 1.54  18 1.54
  23  0.749  0.251  0.250-  43 1.53  92 1.53  18 1.54 111 1.54
  24  0.917  0.250  0.084-   2 1.53  20 1.54  25 1.54  43 1.54
  25  0.000  0.333  0.000- 185 1.53  30 1.53 147 1.54  24 1.54
  26  1.000  0.500  0.167-  31 1.53  48 1.53  45 1.54  30 1.54
  27  0.166  0.334  0.166-  30 1.53   8 1.54   7 1.54  29 1.54
  28  0.167  0.500  1.000-  32 1.53 171 1.53 169 1.54  30 1.54
  29  0.250  0.418  0.250- 105 1.53  34 1.53 100 1.53  27 1.54
  30  0.083  0.417  0.083-  27 1.53  25 1.53  26 1.54  28 1.54
  31  0.082  0.584  0.250-  26 1.53 100 1.53 119 1.54  51 1.54
  32  0.250  0.584  0.082-  28 1.53  34 1.53  57 1.54  51 1.54
  33  0.333  0.334  1.000- 169 1.53 155 1.53   8 1.54  38 1.54
  34  0.332  0.501  0.166-  32 1.53  38 1.53  29 1.53  39 1.54
  35  0.500  0.334  0.167-  15 1.53  16 1.53  38 1.54  37 1.55
  36  0.500  0.500  0.000-  38 1.53  40 1.53 177 1.54 179 1.54
  37  0.583  0.419  0.251- 108 1.50  42 1.53 111 1.54  35 1.55
  38  0.416  0.417  0.083-  36 1.53  34 1.53  35 1.54  33 1.54
  39  0.416  0.584  0.250- 108 1.51  59 1.53 127 1.54  34 1.54
  40  0.583  0.584  0.083-  59 1.53  42 1.53  36 1.53  65 1.53
  41  0.667  0.333  0.001- 177 1.53  16 1.53  46 1.54 163 1.54
  42  0.666  0.500  0.167-  47 1.53  37 1.53  40 1.53  46 1.54
  43  0.833  0.334  0.167-  46 1.53  45 1.53  23 1.53  24 1.54
  44  0.834  0.500  0.001- 187 1.53  48 1.53  46 1.54 185 1.54
  45  0.916  0.417  0.250-  43 1.53  97 1.53  26 1.54 114 1.54
  46  0.750  0.417  0.084-  43 1.53  41 1.54  44 1.54  42 1.54
  47  0.748  0.584  0.252- 133 1.50  42 1.53 114 1.54  67 1.55
  48  0.917  0.583  0.084-  44 1.53  26 1.53  67 1.54  49 1.54
  49  1.000  0.667  1.000-  54 1.53 209 1.53  48 1.54 171 1.54
  50  0.999  0.834  0.166-  72 1.53  55 1.53  54 1.54  69 1.54
  51  0.165  0.667  0.165-  53 1.52  54 1.53  31 1.54  32 1.54
  52  0.166  0.834  0.999- 195 1.53  56 1.53  54 1.54 193 1.54
  53  0.247  0.751  0.247-  51 1.52 127 1.52  58 1.54 122 1.54
  54  0.082  0.750  0.082-  51 1.53  49 1.53  50 1.54  52 1.54
  55  0.082  0.917  0.249- 122 1.53  50 1.53  73 1.53   3 1.54
  56  0.249  0.917  0.082-  58 1.53  52 1.53   9 1.53   3 1.54
  57  0.333  0.667  0.999-  62 1.53 193 1.53  32 1.54 179 1.54
  58  0.332  0.834  0.165-  56 1.53  62 1.54  53 1.54  63 1.54
  59  0.499  0.667  0.166-  40 1.53  39 1.53  61 1.53  62 1.54
  60  0.500  0.833  0.999-  62 1.53 203 1.53  64 1.54 201 1.54
  61  0.582  0.750  0.250- 133 1.50  59 1.53 129 1.54  66 1.54
  62  0.416  0.750  0.082-  57 1.53  60 1.53  59 1.54  58 1.54
  63  0.416  0.919  0.248-  11 1.52 129 1.53  81 1.54  58 1.54
  64  0.583  0.917  0.082-  66 1.53  17 1.53  60 1.54  11 1.54
  65  0.667  0.667  0.000-  70 1.53  40 1.53 187 1.54 201 1.54
  66  0.666  0.834  0.165-  64 1.53  71 1.53  70 1.53  61 1.54
  67  0.833  0.667  0.167-  69 1.53  70 1.53  48 1.54  47 1.55
  68  0.833  0.833  1.000-  72 1.53 211 1.53 209 1.54  70 1.54
  69  0.915  0.750  0.250-  67 1.53 119 1.53 136 1.53  50 1.54
  70  0.749  0.750  0.083-  65 1.53  66 1.53  67 1.53  68 1.54
  71  0.749  0.917  0.250- 136 1.53  89 1.53  66 1.53  19 1.54
  72  0.916  0.917  0.083-  50 1.53  68 1.53  19 1.54   1 1.54
  73  0.999  0.000  0.333-  21 1.53  55 1.53  78 1.54 140 1.54
  74  1.000  0.167  0.500-  78 1.53  96 1.53  93 1.54  79 1.54
  75  0.165  0.001  0.499- 126 1.52  78 1.53 125 1.54  77 1.54
  76  0.166  0.167  0.333-   7 1.53   5 1.53  78 1.54  80 1.54
  77  0.250  0.084  0.583- 149 1.53 144 1.53  82 1.54  75 1.54
  78  0.082  0.084  0.416-  75 1.53  74 1.53  73 1.54  76 1.54
  79  0.084  0.250  0.583- 165 1.53 144 1.53  99 1.53  74 1.54
  80  0.250  0.251  0.417-  99 1.53 105 1.53  82 1.53  76 1.54
  81  0.332  0.001  0.332-   5 1.53  86 1.54  63 1.54 126 1.54
  82  0.333  0.167  0.500-  86 1.53  80 1.53  77 1.54  87 1.54
  83  0.500  0.001  0.500- 132 1.53 131 1.53  85 1.53  86 1.53
  84  0.500  0.167  0.333-  86 1.53  15 1.53  13 1.54  88 1.54
  85  0.583  0.083  0.583-  83 1.53 157 1.53 152 1.53  90 1.53
  86  0.416  0.084  0.416-  82 1.53  84 1.53  83 1.53  81 1.54
  87  0.417  0.251  0.583- 173 1.53 107 1.53  82 1.54 152 1.54
  88  0.583  0.251  0.417- 111 1.53 107 1.53  84 1.54  90 1.54
  89  0.666  0.001  0.333-  13 1.53  71 1.53  94 1.53 132 1.55
  90  0.667  0.167  0.500-  94 1.53  85 1.53  95 1.54  88 1.54
  91  0.833  0.000  0.500- 140 1.53  93 1.53  94 1.53 139 1.55
  92  0.833  0.167  0.333-  23 1.53  96 1.53  21 1.54  94 1.54
  93  0.917  0.083  0.583- 160 1.53 141 1.53  91 1.53  74 1.54
  94  0.750  0.083  0.417-  90 1.53  89 1.53  91 1.53  92 1.54
  95  0.751  0.249  0.584- 181 1.53 160 1.53 113 1.54  90 1.54
  96  0.917  0.250  0.417- 113 1.53  74 1.53  92 1.53  97 1.54
  97  1.000  0.334  0.333-  45 1.53  96 1.54   7 1.54 102 1.54
  98  0.000  0.500  0.500- 102 1.53 103 1.53 115 1.54 118 1.54
  99  0.167  0.334  0.500-  80 1.53  79 1.53 102 1.54 101 1.55
 100  0.166  0.501  0.332-  31 1.53 102 1.53  29 1.53 104 1.54
 101  0.251  0.419  0.583- 106 1.50 168 1.53 173 1.54  99 1.55
 102  0.083  0.417  0.416-  98 1.53 100 1.53  99 1.54  97 1.54
 103  0.084  0.584  0.583- 121 1.53 168 1.53  98 1.53 189 1.53
 104  0.250  0.584  0.416- 106 1.51 121 1.53 127 1.54 100 1.54
 105  0.333  0.334  0.333-  15 1.53  80 1.53  29 1.53 110 1.58
 106  0.330  0.499  0.496- 101 1.50 110 1.50 104 1.51 213 2.59
 107  0.501  0.334  0.501-  87 1.53  88 1.53 109 1.54 110 1.54
 108  0.496  0.499  0.330-  37 1.50 110 1.51  39 1.51 213 2.59
 109  0.587  0.413  0.587- 112 1.50 176 1.50 181 1.53 107 1.54 213 2.64
 110  0.418  0.420  0.418- 106 1.50 108 1.51 107 1.54 105 1.58
 111  0.666  0.334  0.334-  88 1.53 116 1.53  37 1.54  23 1.54
 112  0.675  0.492  0.509- 116 1.49 109 1.50 117 1.50 213 2.29
 113  0.834  0.332  0.501-  96 1.53  95 1.54 115 1.54 116 1.55
 114  0.832  0.501  0.334- 118 1.53 116 1.53  47 1.54  45 1.54
 115  0.918  0.415  0.584- 184 1.53 165 1.53 113 1.54  98 1.54
 116  0.750  0.417  0.418- 112 1.49 114 1.53 111 1.53 113 1.55
 117  0.754  0.580  0.587- 205 1.50 112 1.50 184 1.53 135 1.54 213 2.63
 118  0.916  0.583  0.417- 114 1.53 135 1.53 119 1.54  98 1.54
 119  0.999  0.667  0.333- 124 1.53  69 1.53  31 1.54 118 1.54
 120  0.999  0.833  0.500- 124 1.53 140 1.53 125 1.54 137 1.54
 121  0.166  0.667  0.499- 103 1.53 104 1.53 123 1.53 124 1.54
 122  0.165  0.834  0.332-  55 1.53 124 1.54  53 1.54 126 1.54
 123  0.250  0.750  0.582- 197 1.50 121 1.53 128 1.54 192 1.54
 124  0.082  0.750  0.416- 119 1.53 120 1.53 121 1.54 122 1.54
 125  0.082  0.917  0.583- 192 1.53 141 1.53 120 1.54  75 1.54
 126  0.248  0.919  0.416-  75 1.52 128 1.53  81 1.54 122 1.54
 127  0.331  0.668  0.331- 130 1.49  53 1.52 104 1.54  39 1.54
 128  0.331  0.836  0.498- 130 1.50 126 1.53 123 1.54 131 1.54
 129  0.498  0.836  0.331- 130 1.50  63 1.53  61 1.54 132 1.54
 130  0.405  0.761  0.405- 127 1.49 128 1.50 129 1.50 213 2.16
 131  0.417  0.917  0.582- 200 1.50  83 1.53 128 1.54 149 1.55
 132  0.582  0.917  0.417- 134 1.50  83 1.53 129 1.54  89 1.55
 133  0.668  0.671  0.329-  61 1.50  47 1.50 138 1.50 213 2.59
 134  0.668  0.838  0.497- 139 1.50 132 1.50 138 1.51 213 2.59
 135  0.833  0.666  0.501- 137 1.53 118 1.53 117 1.54 138 1.55
 136  0.832  0.834  0.333-  71 1.53 140 1.53  69 1.53 138 1.60
 137  0.916  0.750  0.583- 208 1.53 135 1.53 120 1.54 189 1.54
 138  0.745  0.748  0.419- 133 1.50 134 1.51 135 1.55 136 1.60
 139  0.748  0.916  0.583- 134 1.50 157 1.53 208 1.54  91 1.55
 140  0.915  0.917  0.417-  91 1.53 136 1.53 120 1.53  73 1.54
 141  1.000  1.000  0.666- 125 1.53  93 1.53 212 1.54 146 1.54
 142  0.000  0.166  0.833- 164 1.53 146 1.53 147 1.54 161 1.54
 143  0.166  0.000  0.833- 146 1.53 145 1.53 195 1.54 196 1.54
 144  0.167  0.167  0.666-  79 1.53  77 1.53 148 1.54 146 1.54
 145  0.250  0.084  0.916-   9 1.53 143 1.53 150 1.54   4 1.54
 146  0.083  0.083  0.750- 143 1.53 142 1.53 141 1.54 144 1.54
 147  0.084  0.250  0.917-   4 1.53 142 1.54  25 1.54 167 1.54
 148  0.250  0.251  0.749- 167 1.53 150 1.53 144 1.54 173 1.54
 149  0.333  0.001  0.666-  77 1.53 196 1.53 154 1.53 131 1.55
 150  0.333  0.167  0.833- 148 1.53 155 1.53 145 1.54 154 1.54
 151  0.500  0.000  0.833- 203 1.53 153 1.53 154 1.53 204 1.55
 152  0.500  0.167  0.667- 154 1.53  85 1.53 156 1.54  87 1.54
 153  0.583  0.083  0.917- 158 1.53  17 1.53 151 1.53  12 1.54
 154  0.417  0.083  0.750- 152 1.53 149 1.53 151 1.53 150 1.54
 155  0.417  0.250  0.917- 175 1.53  12 1.53 150 1.53  33 1.53
 156  0.584  0.249  0.751- 181 1.53 158 1.53 175 1.54 152 1.54
 157  0.666  1.000  0.666- 139 1.53 204 1.53  85 1.53 162 1.54
 158  0.667  0.166  0.834- 156 1.53 153 1.53 162 1.54 163 1.54
 159  0.833  1.000  0.833- 162 1.53 212 1.53 211 1.53 161 1.54
 160  0.834  0.166  0.667-  95 1.53  93 1.53 162 1.54 164 1.54
 161  0.917  0.083  0.917-   1 1.53  20 1.54 142 1.54 159 1.54
 162  0.750  0.083  0.750- 159 1.53 158 1.54 160 1.54 157 1.54
 163  0.750  0.249  0.917-  20 1.53 183 1.53 158 1.54  41 1.54
 164  0.917  0.249  0.750- 142 1.53 183 1.53 160 1.54 165 1.54
 165  0.001  0.333  0.667- 115 1.53  79 1.53 170 1.54 164 1.54
 166  0.001  0.500  0.834- 188 1.53 171 1.53 170 1.54 185 1.54
 167  0.167  0.334  0.833- 170 1.53 169 1.53 148 1.53 147 1.54
 168  0.167  0.501  0.666- 172 1.53 101 1.53 103 1.53 170 1.54
 169  0.250  0.417  0.916- 167 1.53  33 1.53  28 1.54 174 1.54
 170  0.084  0.417  0.750- 167 1.53 165 1.54 166 1.54 168 1.54
 171  0.084  0.583  0.917- 166 1.53  28 1.53 191 1.54  49 1.54
 172  0.252  0.584  0.748- 197 1.50 168 1.53 174 1.54 191 1.55
 173  0.334  0.334  0.666-  87 1.53 178 1.53 101 1.54 148 1.54
 174  0.334  0.501  0.832- 179 1.53 178 1.53 172 1.54 169 1.54
 175  0.501  0.332  0.834- 155 1.53 156 1.54 177 1.54 178 1.55
 176  0.509  0.492  0.675- 178 1.49 109 1.50 180 1.50 213 2.29
 177  0.584  0.415  0.918- 182 1.53  41 1.53 175 1.54  36 1.54
 178  0.418  0.417  0.750- 176 1.49 174 1.53 173 1.53 175 1.55
 179  0.417  0.583  0.916- 174 1.53 199 1.53  57 1.54  36 1.54
 180  0.587  0.580  0.754- 205 1.50 176 1.50 182 1.53 199 1.54 213 2.63
 181  0.670  0.330  0.670- 156 1.53  95 1.53 109 1.53 186 1.53
 182  0.670  0.497  0.837- 177 1.53 187 1.53 180 1.53 186 1.53
 183  0.835  0.332  0.835- 186 1.52 185 1.53 164 1.53 163 1.53
 184  0.837  0.497  0.670- 115 1.53 188 1.53 117 1.53 186 1.53
 185  0.917  0.416  0.917-  25 1.53 183 1.53  44 1.54 166 1.54
 186  0.752  0.415  0.752- 183 1.52 184 1.53 182 1.53 181 1.53
 187  0.751  0.583  0.918- 182 1.53  44 1.53 207 1.54  65 1.54
 188  0.918  0.583  0.751- 184 1.53 166 1.53 207 1.54 189 1.54
 189  0.000  0.667  0.667- 194 1.53 103 1.53 188 1.54 137 1.54
 190  1.000  0.833  0.833- 195 1.53 212 1.53 209 1.54 194 1.54
 191  0.167  0.667  0.833- 193 1.53 194 1.53 171 1.54 172 1.55
 192  0.165  0.834  0.666- 125 1.53 196 1.53 194 1.53 123 1.54
 193  0.250  0.750  0.915- 191 1.53  57 1.53 198 1.53  52 1.54
 194  0.083  0.750  0.749- 189 1.53 192 1.53 191 1.53 190 1.54
 195  0.083  0.917  0.916-  52 1.53 190 1.53 143 1.54   1 1.54
 196  0.250  0.917  0.749- 198 1.53 149 1.53 192 1.53 143 1.54
 197  0.329  0.671  0.668- 123 1.50 172 1.50 202 1.50 213 2.59
 198  0.333  0.834  0.832- 196 1.53 203 1.53 193 1.53 202 1.60
 199  0.501  0.666  0.833- 201 1.53 179 1.53 180 1.54 202 1.55
 200  0.497  0.838  0.668- 204 1.50 131 1.50 202 1.51 213 2.59
 201  0.583  0.750  0.916- 206 1.53 199 1.53  60 1.54  65 1.54
 202  0.419  0.748  0.745- 197 1.50 200 1.51 199 1.55 198 1.60
 203  0.417  0.917  0.915- 151 1.53 198 1.53  60 1.53   9 1.54
 204  0.583  0.916  0.748- 200 1.50 157 1.53 206 1.54 151 1.55
 205  0.675  0.657  0.675- 210 1.49 180 1.50 117 1.50 213 2.29
 206  0.666  0.833  0.832- 201 1.53 210 1.53 204 1.54 211 1.54
 207  0.835  0.666  0.835- 209 1.53 187 1.54 188 1.54 210 1.55
 208  0.832  0.833  0.666- 137 1.53 210 1.53 139 1.54 212 1.54
 209  0.917  0.750  0.917- 207 1.53  49 1.53 190 1.54  68 1.54
 210  0.750  0.749  0.750- 205 1.49 208 1.53 206 1.53 207 1.55
 211  0.750  0.916  0.916- 159 1.53  68 1.53  17 1.54 206 1.54
 212  0.916  0.916  0.750- 159 1.53 190 1.53 141 1.54 208 1.54
 213  0.523  0.644  0.523- 130 2.16 205 2.29 176 2.29 112 2.29 197 2.59 133 2.59 134 2.59 200 2.59
                           106 2.59 108 2.59 180 2.63 117 2.63 109 2.64
 

IMPORTANT INFORMATION: All symmetrisations will be switched off!
NOSYMM: (Re-)initialisation of all symmetry stuff for point group C_1.


----------------------------------------------------------------------------------------

                                     Primitive cell                                     

  volume of cell :    1202.8529

  direct lattice vectors                    reciprocal lattice vectors
    10.635000229  0.000000000  0.000000000     0.094029147  0.000000000  0.000000000
     0.000000000 10.635000229  0.000000000     0.000000000  0.094029147  0.000000000
     0.000000000  0.000000000 10.635000229     0.000000000  0.000000000  0.094029147

  length of vectors
    10.635000229 10.635000229 10.635000229     0.094029147  0.094029147  0.094029147

  position of ions in fractional coordinates (direct lattice)
     0.999721018  0.000070467  0.999725529
     0.999677487  0.166977612  0.166607909
     0.166088263  0.000507342  0.166095946
     0.166606718  0.166982571  0.999676687
     0.249372249  0.084253149  0.249376573
     0.082985632  0.083634481  0.082988485
     0.083014592  0.250582548  0.249857310
     0.249857880  0.250585796  0.083010748
     0.332883037  0.000424908  0.999150326
     0.332879177  0.167342493  0.166113296
     0.499409725  0.001361925  0.165233017
     0.499821902  0.166863026  0.999838456
     0.582764342  0.084158901  0.249540502
     0.416363529  0.084110173  0.082396437
     0.416567047  0.250845453  0.249847482
     0.583184852  0.249998513  0.083677052
     0.666431230  0.999953169  0.999581382
     0.666398408  0.167080520  0.166805123
     0.832854254  0.000244763  0.166486949
     0.833408910  0.166368238  0.000373059
     0.915995921  0.083573908  0.249900955
     0.749616302  0.083327903  0.083382469
     0.749493620  0.250590303  0.250394401
     0.916537747  0.250128931  0.083610201
     0.000343259  0.333298551  0.000336071
     0.999551824  0.500246826  0.166783748
     0.166440565  0.333790081  0.166436903
     0.166790190  0.500252648  0.999547420
     0.249801454  0.417582995  0.249798355
     0.083335008  0.417019819  0.083329138
     0.082402030  0.583809012  0.249512266
     0.249512894  0.583813609  0.082402584
     0.333360227  0.333743245  0.999613514
     0.332466485  0.500653259  0.165584273
     0.499777926  0.333693433  0.166526537
     0.500115601  0.500019191  0.000037291
     0.582552863  0.418525980  0.251458577
     0.416468679  0.417123224  0.083211634
     0.416385560  0.584042069  0.249740013
     0.583068736  0.583549250  0.083487505
     0.666964669  0.332687979  0.001167001
     0.666010990  0.500488828  0.167327958
     0.833038528  0.333616394  0.167237175
     0.833974267  0.499719927  0.001162953
     0.916036257  0.417149487  0.250401090
     0.749865320  0.416770199  0.084284537
     0.747849402  0.583833766  0.251583612
     0.916598151  0.583427605  0.083710391
     0.999851400  0.666857736  0.999849531
     0.999148333  0.833780194  0.166276788
     0.165211561  0.667188442  0.165214970
     0.166268587  0.833784996  0.999156333
     0.247463486  0.750599820  0.247468751
     0.082459415  0.750197273  0.082465828
     0.082271113  0.917180691  0.249454930
     0.249445555  0.917185693  0.082278308
     0.333317908  0.666893534  0.999053498
     0.332482997  0.834109149  0.165231833
     0.499436753  0.667085833  0.165995203
     0.499740112  0.833349758  0.999064881
     0.582454297  0.750356021  0.249577046
     0.416243316  0.750386454  0.082444394
     0.415975068  0.919079385  0.247583401
     0.582793163  0.917185728  0.082368158
     0.666619835  0.666533334  0.000060742
     0.665894735  0.834297425  0.165460905
     0.832808554  0.666880776  0.166591111
     0.832955272  0.833320315  0.999686942
     0.915352514  0.749870498  0.250163388
     0.749467281  0.750184951  0.083241732
     0.748769270  0.916797136  0.249890702
     0.916019278  0.916748319  0.083115849
     0.999143757  0.000416529  0.332891124
     0.999843617  0.166861511  0.499824587
     0.165229880  0.001362421  0.499419885
     0.166114147  0.167341970  0.332882596
     0.249541450  0.084161634  0.582769862
     0.082394629  0.084106614  0.416370351
     0.083689824  0.250004013  0.583181876
     0.249854968  0.250849902  0.416566609
     0.332469958  0.001377689  0.332477919
     0.333210992  0.167494014  0.499689788
     0.499512636  0.000887826  0.499523541
     0.499687098  0.167490977  0.333210111
     0.583151981  0.083305363  0.583157441
     0.416211753  0.084176389  0.416216262
     0.416943928  0.250633677  0.583246242
     0.583249211  0.250627223  0.416940105
     0.665950485  0.001130075  0.332506563
     0.666621626  0.166694882  0.500114650
     0.833035024  0.000361524  0.499879861
     0.832905682  0.167060669  0.333363515
     0.916672815  0.083125733  0.583261855
     0.749505456  0.083461184  0.416536153
     0.751199981  0.248637803  0.583829646
     0.916757857  0.249898019  0.416649302
     0.999622092  0.333737306  0.333358184
     0.000051372  0.500016912  0.500115974
     0.166543499  0.333704309  0.499774293
     0.165588909  0.500654215  0.332464142
     0.251482463  0.418549519  0.582542331
     0.083222548  0.417123335  0.416466049
     0.083502549  0.583554693  0.583069145
     0.249742979  0.584042657  0.416382269
     0.332627375  0.333648964  0.332619484
     0.329706499  0.498554959  0.496033945
     0.500753061  0.333796558  0.500749273
     0.496051232  0.498534963  0.329680804
     0.586670255  0.413376502  0.586670088
     0.418204606  0.420234278  0.418197858
     0.666079103  0.334299176  0.334079956
     0.674963309  0.491723994  0.509457853
     0.834424432  0.332265627  0.500531687
     0.832300689  0.500509061  0.334122306
     0.918175264  0.415407386  0.583862761
     0.749774959  0.416836952  0.417519171
     0.753535934  0.579568360  0.587138008
     0.915908860  0.583348181  0.417030600
     0.999054858  0.666884777  0.333323951
     0.999063710  0.833343383  0.499751591
     0.166008807  0.667088968  0.499444472
     0.165227598  0.834106412  0.332493722
     0.249580132  0.750366297  0.582470783
     0.082445307  0.750381913  0.416252572
     0.082365308  0.917186306  0.582803436
     0.247575992  0.919081548  0.415987022
     0.330527178  0.668392904  0.330531823
     0.330736858  0.835875669  0.498138096
     0.498121076  0.835869668  0.330747400
     0.405441723  0.760684756  0.405464270
     0.416701834  0.916954003  0.582451907
     0.582434639  0.916954669  0.416708621
     0.667710178  0.670712996  0.329138078
     0.668306375  0.838159140  0.496763235
     0.832692925  0.665626028  0.501104031
     0.832291534  0.834129329  0.332748887
     0.915941771  0.749683953  0.583346337
     0.744916979  0.747599354  0.419283267
     0.748328115  0.915540094  0.583018989
     0.915421260  0.916619218  0.416787670
     0.999580160  0.999954723  0.666437806
     0.000376804  0.166371905  0.833407670
     0.166484611  0.000251013  0.832859763
     0.166811153  0.167086957  0.666398737
     0.249897628  0.083582176  0.915997876
     0.083383958  0.083333017  0.749618331
     0.083616337  0.250134983  0.916531553
     0.250401963  0.250602167  0.749486953
     0.332504892  0.001131717  0.665960576
     0.333363370  0.167069392  0.832903470
     0.499871962  0.000367007  0.833042214
     0.500113148  0.166698635  0.666622525
     0.583257506  0.083128091  0.916674238
     0.416533156  0.083467035  0.749509673
     0.416650105  0.249905219  0.916750769
     0.583830194  0.248641054  0.751196663
     0.666289513  0.999718134  0.666299765
     0.667009577  0.165697627  0.834012901
     0.833130816  0.999531815  0.833134176
     0.834014854  0.165697386  0.667010091
     0.916587140  0.083097023  0.916586990
     0.749994142  0.082617705  0.749996461
     0.750327856  0.249323461  0.917445769
     0.917454437  0.249325973  0.750322726
     0.001183434  0.332692337  0.666960353
     0.001178488  0.499724843  0.833968568
     0.167247829  0.333627397  0.833030643
     0.167352271  0.500507054  0.666003299
     0.250407790  0.417161034  0.916027865
     0.084303556  0.416781638  0.749856398
     0.083719090  0.583434889  0.916595741
     0.251599242  0.583860127  0.747841535
     0.334088123  0.334314648  0.666070215
     0.334127404  0.500527345  0.832289770
     0.500532535  0.332274406  0.834413281
     0.509449729  0.491740874  0.674949052
     0.583863399  0.415411203  0.918160705
     0.417521456  0.416853365  0.749764410
     0.417027463  0.583360243  0.915903412
     0.587121219  0.579585190  0.753526250
     0.669536911  0.329693618  0.669534672
     0.669659100  0.497010948  0.837207537
     0.834722226  0.332014489  0.834714835
     0.837222035  0.497005235  0.669662736
     0.917426601  0.416396773  0.917415931
     0.752063103  0.414611576  0.752059242
     0.751256850  0.582811938  0.918167515
     0.918178459  0.582812138  0.751257956
     0.000070754  0.666534813  0.666623627
     0.999686175  0.833322949  0.832960113
     0.166600530  0.666892801  0.832807184
     0.165463408  0.834302299  0.665904795
     0.250157498  0.749884100  0.915361225
     0.083245852  0.750191114  0.749472596
     0.083111230  0.916752503  0.916025027
     0.249887484  0.916803920  0.748782797
     0.329164677  0.670741151  0.667712046
     0.332745806  0.834140177  0.832309785
     0.501091187  0.665642511  0.832691104
     0.496754806  0.838154103  0.668322771
     0.583337047  0.749690476  0.915942477
     0.419258499  0.747631843  0.744948058
     0.416774843  0.916631829  0.915433402
     0.583002577  0.915546361  0.748341298
     0.675295633  0.657022289  0.675298461
     0.666280937  0.832644385  0.832481725
     0.834522223  0.666159700  0.834520412
     0.832477955  0.832641767  0.666290797
     0.916817523  0.750004553  0.916818720
     0.749931773  0.749153735  0.749937686
     0.749588011  0.916334020  0.916134922
     0.916131870  0.916333866  0.749593511
     0.523178602  0.644360274  0.523183520

  ion indices of the primitive-cell ions
   primitive index   ion index
                 1           1
                 2           2
                 3           3
                 4           4
                 5           5
                 6           6
                 7           7
                 8           8
                 9           9
                10          10
                11          11
                12          12
                13          13
                14          14
                15          15
                16          16
                17          17
                18          18
                19          19
                20          20
                21          21
                22          22
                23          23
                24          24
                25          25
                26          26
                27          27
                28          28
                29          29
                30          30
                31          31
                32          32
                33          33
                34          34
                35          35
                36          36
                37          37
                38          38
                39          39
                40          40
                41          41
                42          42
                43          43
                44          44
                45          45
                46          46
                47          47
                48          48
                49          49
                50          50
                51          51
                52          52
                53          53
                54          54
                55          55
                56          56
                57          57
                58          58
                59          59
                60          60
                61          61
                62          62
                63          63
                64          64
                65          65
                66          66
                67          67
                68          68
                69          69
                70          70
                71          71
                72          72
                73          73
                74          74
                75          75
                76          76
                77          77
                78          78
                79          79
                80          80
                81          81
                82          82
                83          83
                84          84
                85          85
                86          86
                87          87
                88          88
                89          89
                90          90
                91          91
                92          92
                93          93
                94          94
                95          95
                96          96
                97          97
                98          98
                99          99
               100         100
               101         101
               102         102
               103         103
               104         104
               105         105
               106         106
               107         107
               108         108
               109         109
               110         110
               111         111
               112         112
               113         113
               114         114
               115         115
               116         116
               117         117
               118         118
               119         119
               120         120
               121         121
               122         122
               123         123
               124         124
               125         125
               126         126
               127         127
               128         128
               129         129
               130         130
               131         131
               132         132
               133         133
               134         134
               135         135
               136         136
               137         137
               138         138
               139         139
               140         140
               141         141
               142         142
               143         143
               144         144
               145         145
               146         146
               147         147
               148         148
               149         149
               150         150
               151         151
               152         152
               153         153
               154         154
               155         155
               156         156
               157         157
               158         158
               159         159
               160         160
               161         161
               162         162
               163         163
               164         164
               165         165
               166         166
               167         167
               168         168
               169         169
               170         170
               171         171
               172         172
               173         173
               174         174
               175         175
               176         176
               177         177
               178         178
               179         179
               180         180
               181         181
               182         182
               183         183
               184         184
               185         185
               186         186
               187         187
               188         188
               189         189
               190         190
               191         191
               192         192
               193         193
               194         194
               195         195
               196         196
               197         197
               198         198
               199         199
               200         200
               201         201
               202         202
               203         203
               204         204
               205         205
               206         206
               207         207
               208         208
               209         209
               210         210
               211         211
               212         212
               213         213

----------------------------------------------------------------------------------------

 
 
 KPOINTS: 1 x 1 x 1 k-mesh (automatic generation o

Automatic generation of k-mesh.
 Grid dimensions read from file:
 generate k-points for:    1    1    1

 Generating k-lattice:

  Cartesian coordinates                     Fractional coordinates (reciprocal lattice)
     0.094029147  0.000000000  0.000000000     1.000000000  0.000000000  0.000000000
     0.000000000  0.094029147  0.000000000     0.000000000  1.000000000  0.000000000
     0.000000000  0.000000000  0.094029147     0.000000000  0.000000000  1.000000000

  Length of vectors
     0.094029147  0.094029147  0.094029147

  Shift w.r.t. Gamma in fractional coordinates (k-lattice)
     0.000000000  0.000000000  0.000000000

 
 Subroutine IBZKPT returns following result:
 ===========================================
 
 Found      1 irreducible k-points:
 
 Following reciprocal coordinates:
            Coordinates               Weight
  0.000000  0.000000  0.000000      1.000000
 
 Following cartesian coordinates:
            Coordinates               Weight
  0.000000  0.000000  0.000000      1.000000
 


--------------------------------------------------------------------------------------------------------




 Dimension of arrays:
   k-points           NKPTS =      1   k-points in BZ     NKDIM =      1   number of bands    NBANDS=    645
   number of dos      NEDOS =    301   number of ions     NIONS =    213
   non local maximal  LDIM  =      8   non local SUM 2l+1 LMDIM =     32
   total plane-waves  NPLWV = 343000
   max r-space proj   IRMAX =      1   max aug-charges    IRDMAX=  15313
   dimension x,y,z NGX =    70 NGY =   70 NGZ =   70
   dimension x,y,z NGXF=   140 NGYF=  140 NGZF=  140
   support grid    NGXF=   140 NGYF=  140 NGZF=  140
   ions per type =             212   1
   NGX,Y,Z   is equivalent  to a cutoff of  10.94, 10.94, 10.94 a.u.
   NGXF,Y,Z  is equivalent  to a cutoff of  21.88, 21.88, 21.88 a.u.

 SYSTEM =  unknown system                          
 POSCAR =  3D\Atomistic                            

 Startparameter for this run:
   NWRITE =      2    write-flag & timer
   PREC   = accura    normal or accurate (medium, high low for compatibility)
   ISTART =      1    job   : 0-new  1-cont  2-samecut
   ICHARG =      0    charge: 1-file 2-atom 10-const
   ISPIN  =      2    spin polarized calculation?
   LNONCOLLINEAR =      F non collinear calculations
   LSORBIT =      F    spin-orbit coupling
   INIWAV =      1    electr: 0-lowe 1-rand  2-diag
   LASPH  =      F    aspherical Exc in radial PAW
 Electronic Relaxation 1
   ENCUT  =  370.0 eV  27.19 Ry    5.21 a.u.  16.68 16.68 16.68*2*pi/ulx,y,z
   ENINI  =  370.0     initial cutoff
   ENAUG  =  740.0 eV  augmentation charge cutoff
   NELM   =     60;   NELMIN=  2; NELMDL=  0     # of ELM steps 
   EDIFF  = 0.1E-04   stopping-criterion for ELM
   LREAL  =      F    real-space projection
   NLSPLINE    = F    spline interpolate recip. space projectors
   LCOMPAT=      F    compatible to vasp.4.4
   GGA_COMPAT  = T    GGA compatible to vasp.4.4-vasp.4.6
   LMAXPAW     = -100 max onsite density
   LMAXMIX     =    6 max onsite mixed and CHGCAR
   VOSKOWN=      0    Vosko Wilk Nusair interpolation
   ROPT   =    0.00000   0.00000
 Ionic relaxation
   EDIFFG = -.1E-01   stopping-criterion for IOM
   NSW    =      0    number of steps for IOM
   NBLOCK =      1;   KBLOCK =      1    inner block; outer block 
   IBRION =     -1    ionic relax: 0-MD 1-quasi-New 2-CG
   NFREE  =      1    steps in history (QN), initial steepest desc. (CG)
   ISIF   =      1    stress and relaxation
   IWAVPR =     10    prediction:  0-non 1-charg 2-wave 3-comb
   ISYM   =      0    0-nonsym 1-usesym 2-fastsym
   LCORR  =      T    Harris-Foulkes like correction to forces

   POTIM  = 0.2000    time-step for ionic-motion
   TEIN   =    0.0    initial temperature
   TEBEG  =    0.0;   TEEND  =   0.0 temperature during run
   SMASS  =  -3.00    Nose mass-parameter (am)
   estimated Nose-frequenzy (Omega)   =  0.10E-29 period in steps = 0.31E+47 mass=  -0.258E-26a.u.
   SCALEE = 1.0000    scale energy and forces
   NPACO  =    256;   APACO  = 16.0  distance and # of slots for P.C.
   PSTRESS=    0.0 pullay stress

  Mass of Ions in am
   POMASS =  12.01140.91
  Ionic Valenz
   ZVAL   =   4.00 13.00
  Atomic Wigner-Seitz radii
   RWIGS  =  -1.00 -1.00
  virtual crystal weights 
   VCA    =   1.00  1.00
   NELECT =     861.0000    total number of electrons
   NUPDOWN=      -1.0000    fix difference up-down

 DOS related values:
   EMIN   =  10.00;   EMAX   =-10.00  energy-range for DOS
   EFERMI =   0.00
   ISMEAR =     0;   SIGMA  =   0.01  broadening in eV -4-tet -1-fermi 0-gaus

 Electronic relaxation 2 (details)
   IALGO  =     58    algorithm
   LDIAG  =      T    sub-space diagonalisation (order eigenvalues)
   LSUBROT=      F    optimize rotation matrix (better conditioning)
   TURBO    =      0    0=normal 1=particle mesh
   IRESTART =      0    0=no restart 2=restart with 2 vectors
   NREBOOT  =      0    no. of reboots
   NMIN     =      0    reboot dimension
   EREF     =   0.00    reference energy to select bands
   IMIX   =      4    mixing-type and parameters
     AMIX     =   0.40;   BMIX     =  1.00
     AMIX_MAG =   1.60;   BMIX_MAG =  1.00
     AMIN     =   0.10
     WC   =   100.;   INIMIX=   1;  MIXPRE=   1;  MAXMIX= -45

 Intra band minimization:
   WEIMIN = 0.0000     energy-eigenvalue tresh-hold
   EBREAK =  0.39E-08  absolut break condition
   DEPER  =   0.30     relativ break condition  

   TIME   =   0.40     timestep for ELM

  volume/ion in A,a.u.               =       5.65        38.11
  Fermi-wavevector in a.u.,A,eV,Ry     =   1.464440  2.767391 29.178861  2.144586
  Thomas-Fermi vector in A             =   2.580416
 
 Write flags
   LWAVE        =      T    write WAVECAR
   LDOWNSAMPLE  =      F    k-point downsampling of WAVECAR
   LCHARG       =      T    write CHGCAR
   LVTOT        =      F    write LOCPOT, total local potential
   LVHAR        =      F    write LOCPOT, Hartree potential only
   LELF         =      F    write electronic localiz. function (ELF)
   LORBIT       =      0    0 simple, 1 ext, 2 COOP (PROOUT), +10 PAW based schemes


 Dipole corrections
   LMONO  =      F    monopole corrections only (constant potential shift)
   LDIPOL =      F    correct potential (dipole corrections)
   IDIPOL =      0    1-x, 2-y, 3-z, 4-all directions 
   EPSILON=  1.0000000 bulk dielectric constant

 LDA+U is selected, type is set to LDAUTYPE =  1
   angular momentum for each species LDAUL =    -1    3
   U (eV)           for each species LDAUU =   0.0  7.0
   J (eV)           for each species LDAUJ =   0.0  1.0
 Exchange correlation treatment:
   GGA     =    PE    GGA type
   LEXCH   =     8    internal setting for exchange type
   VOSKOWN=      0    Vosko Wilk Nusair interpolation
   LHFCALC =     F    Hartree Fock is set to
   LHFONE  =     F    Hartree Fock one center treatment
   AEXX    =    0.0000 exact exchange contribution

 Linear response parameters
   LEPSILON=     F    determine dielectric tensor
   LRPA    =     F    only Hartree local field effects (RPA)
   LNABLA  =     F    use nabla operator in PAW spheres
   LVEL    =     F    velocity operator in full k-point grid
   LINTERFAST=   F  fast interpolation
   KINTER  =     0    interpolate to denser k-point grid
   CSHIFT  =0.1000    complex shift for real part using Kramers Kronig
   OMEGAMAX=  -1.0    maximum frequency
   DEG_THRESHOLD= 0.2000000E-02 threshold for treating states as degnerate
   RTIME   =   -0.100 relaxation time in fs
  (WPLASMAI=    0.000 imaginary part of plasma frequency in eV, 0.658/RTIME)
   DFIELD  = 0.0000000 0.0000000 0.0000000 field for delta impulse in time
 
 Orbital magnetization related:
   ORBITALMAG=     F  switch on orbital magnetization
   LCHIMAG   =     F  perturbation theory with respect to B field
   DQ        =  0.001000  dq finite difference perturbation B field
   LLRAUG    =     F  two centre corrections for induced B field



--------------------------------------------------------------------------------------------------------


 Static calculation
 charge density and potential will be updated during run
 spin polarized calculation
 Conjugate gradient for all bands (Freysoldt, et al. PRB 79, 241103 (2009))
 preconditioned conjugated gradient                                        
 perform sub-space diagonalisation
    before iterative eigenvector-optimisation
 modified Broyden-mixing scheme, WC =      100.0
 initial mixing is a Kerker type mixing with AMIX =  0.4000 and BMIX =      1.0000
 Hartree-type preconditioning will be used
 using additional bands          214
 reciprocal scheme for non local part
 use partial core corrections
 no Harris-corrections to forces 
 use gradient corrections 
 use of overlap-Matrix (Vanderbilt PP)
 Gauss-broadening in eV      SIGMA  =   0.01


--------------------------------------------------------------------------------------------------------


  energy-cutoff  :      370.00
  volume of cell :     1202.85
      direct lattice vectors                 reciprocal lattice vectors
    10.635000229  0.000000000  0.000000000     0.094029147  0.000000000  0.000000000
     0.000000000 10.635000229  0.000000000     0.000000000  0.094029147  0.000000000
     0.000000000  0.000000000 10.635000229     0.000000000  0.000000000  0.094029147

  length of vectors
    10.635000229 10.635000229 10.635000229     0.094029147  0.094029147  0.094029147


 
 old parameters found on file WAVECAR:
  energy-cutoff  :      370.00
  volume of cell :     1202.85
      direct lattice vectors                 reciprocal lattice vectors
    10.635000229  0.000000000  0.000000000     0.094029147  0.000000000  0.000000000
     0.000000000 10.635000229  0.000000000     0.000000000  0.094029147  0.000000000
     0.000000000  0.000000000 10.635000229     0.000000000  0.000000000  0.094029147

  length of vectors

 
 k-points in units of 2pi/SCALE and weight: 1 x 1 x 1 k-mesh (automatic generation o
   0.00000000  0.00000000  0.00000000       1.000
 
 k-points in reciprocal lattice and weights: 1 x 1 x 1 k-mesh (automatic generation o
   0.00000000  0.00000000  0.00000000       1.000
 
 position of ions in fractional coordinates (direct lattice) 
   0.99972102  0.00007047  0.99972553
   0.99967749  0.16697761  0.16660791
   0.16608826  0.00050734  0.16609595
   0.16660672  0.16698257  0.99967669
   0.24937225  0.08425315  0.24937657
   0.08298563  0.08363448  0.08298848
   0.08301459  0.25058255  0.24985731
   0.24985788  0.25058580  0.08301075
   0.33288304  0.00042491  0.99915033
   0.33287918  0.16734249  0.16611330
   0.49940973  0.00136193  0.16523302
   0.49982190  0.16686303  0.99983846
   0.58276434  0.08415890  0.24954050
   0.41636353  0.08411017  0.08239644
   0.41656705  0.25084545  0.24984748
   0.58318485  0.24999851  0.08367705
   0.66643123  0.99995317  0.99958138
   0.66639841  0.16708052  0.16680512
   0.83285425  0.00024476  0.16648695
   0.83340891  0.16636824  0.00037306
   0.91599592  0.08357391  0.24990095
   0.74961630  0.08332790  0.08338247
   0.74949362  0.25059030  0.25039440
   0.91653775  0.25012893  0.08361020
   0.00034326  0.33329855  0.00033607
   0.99955182  0.50024683  0.16678375
   0.16644056  0.33379008  0.16643690
   0.16679019  0.50025265  0.99954742
   0.24980145  0.41758300  0.24979835
   0.08333501  0.41701982  0.08332914
   0.08240203  0.58380901  0.24951227
   0.24951289  0.58381361  0.08240258
   0.33336023  0.33374325  0.99961351
   0.33246649  0.50065326  0.16558427
   0.49977793  0.33369343  0.16652654
   0.50011560  0.50001919  0.00003729
   0.58255286  0.41852598  0.25145858
   0.41646868  0.41712322  0.08321163
   0.41638556  0.58404207  0.24974001
   0.58306874  0.58354925  0.08348751
   0.66696467  0.33268798  0.00116700
   0.66601099  0.50048883  0.16732796
   0.83303853  0.33361639  0.16723718
   0.83397427  0.49971993  0.00116295
   0.91603626  0.41714949  0.25040109
   0.74986532  0.41677020  0.08428454
   0.74784940  0.58383377  0.25158361
   0.91659815  0.58342761  0.08371039
   0.99985140  0.66685774  0.99984953
   0.99914833  0.83378019  0.16627679
   0.16521156  0.66718844  0.16521497
   0.16626859  0.83378500  0.99915633
   0.24746349  0.75059982  0.24746875
   0.08245941  0.75019727  0.08246583
   0.08227111  0.91718069  0.24945493
   0.24944555  0.91718569  0.08227831
   0.33331791  0.66689353  0.99905350
   0.33248300  0.83410915  0.16523183
   0.49943675  0.66708583  0.16599520
   0.49974011  0.83334976  0.99906488
   0.58245430  0.75035602  0.24957705
   0.41624332  0.75038645  0.08244439
   0.41597507  0.91907938  0.24758340
   0.58279316  0.91718573  0.08236816
   0.66661984  0.66653333  0.00006074
   0.66589474  0.83429742  0.16546090
   0.83280855  0.66688078  0.16659111
   0.83295527  0.83332031  0.99968694
   0.91535251  0.74987050  0.25016339
   0.74946728  0.75018495  0.08324173
   0.74876927  0.91679714  0.24989070
   0.91601928  0.91674832  0.08311585
   0.99914376  0.00041653  0.33289112
   0.99984362  0.16686151  0.49982459
   0.16522988  0.00136242  0.49941989
   0.16611415  0.16734197  0.33288260
   0.24954145  0.08416163  0.58276986
   0.08239463  0.08410661  0.41637035
   0.08368982  0.25000401  0.58318188
   0.24985497  0.25084990  0.41656661
   0.33246996  0.00137769  0.33247792
   0.33321099  0.16749401  0.49968979
   0.49951264  0.00088783  0.49952354
   0.49968710  0.16749098  0.33321011
   0.58315198  0.08330536  0.58315744
   0.41621175  0.08417639  0.41621626
   0.41694393  0.25063368  0.58324624
   0.58324921  0.25062722  0.41694011
   0.66595048  0.00113008  0.33250656
   0.66662163  0.16669488  0.50011465
   0.83303502  0.00036152  0.49987986
   0.83290568  0.16706067  0.33336352
   0.91667282  0.08312573  0.58326186
   0.74950546  0.08346118  0.41653615
   0.75119998  0.24863780  0.58382965
   0.91675786  0.24989802  0.41664930
   0.99962209  0.33373731  0.33335818
   0.00005137  0.50001691  0.50011597
   0.16654350  0.33370431  0.49977429
   0.16558891  0.50065422  0.33246414
   0.25148246  0.41854952  0.58254233
   0.08322255  0.41712334  0.41646605
   0.08350255  0.58355469  0.58306914
   0.24974298  0.58404266  0.41638227
   0.33262737  0.33364896  0.33261948
   0.32970650  0.49855496  0.49603394
   0.50075306  0.33379656  0.50074927
   0.49605123  0.49853496  0.32968080
   0.58667025  0.41337650  0.58667009
   0.41820461  0.42023428  0.41819786
   0.66607910  0.33429918  0.33407996
   0.67496331  0.49172399  0.50945785
   0.83442443  0.33226563  0.50053169
   0.83230069  0.50050906  0.33412231
   0.91817526  0.41540739  0.58386276
   0.74977496  0.41683695  0.41751917
   0.75353593  0.57956836  0.58713801
   0.91590886  0.58334818  0.41703060
   0.99905486  0.66688478  0.33332395
   0.99906371  0.83334338  0.49975159
   0.16600881  0.66708897  0.49944447
   0.16522760  0.83410641  0.33249372
   0.24958013  0.75036630  0.58247078
   0.08244531  0.75038191  0.41625257
   0.08236531  0.91718631  0.58280344
   0.24757599  0.91908155  0.41598702
   0.33052718  0.66839290  0.33053182
   0.33073686  0.83587567  0.49813810
   0.49812108  0.83586967  0.33074740
   0.40544172  0.76068476  0.40546427
   0.41670183  0.91695400  0.58245191
   0.58243464  0.91695467  0.41670862
   0.66771018  0.67071300  0.32913808
   0.66830637  0.83815914  0.49676324
   0.83269293  0.66562603  0.50110403
   0.83229153  0.83412933  0.33274889
   0.91594177  0.74968395  0.58334634
   0.74491698  0.74759935  0.41928327
   0.74832812  0.91554009  0.58301899
   0.91542126  0.91661922  0.41678767
   0.99958016  0.99995472  0.66643781
   0.00037680  0.16637191  0.83340767
   0.16648461  0.00025101  0.83285976
   0.16681115  0.16708696  0.66639874
   0.24989763  0.08358218  0.91599788
   0.08338396  0.08333302  0.74961833
   0.08361634  0.25013498  0.91653155
   0.25040196  0.25060217  0.74948695
   0.33250489  0.00113172  0.66596058
   0.33336337  0.16706939  0.83290347
   0.49987196  0.00036701  0.83304221
   0.50011315  0.16669864  0.66662253
   0.58325751  0.08312809  0.91667424
   0.41653316  0.08346703  0.74950967
   0.41665010  0.24990522  0.91675077
   0.58383019  0.24864105  0.75119666
   0.66628951  0.99971813  0.66629977
   0.66700958  0.16569763  0.83401290
   0.83313082  0.99953181  0.83313418
   0.83401485  0.16569739  0.66701009
   0.91658714  0.08309702  0.91658699
   0.74999414  0.08261770  0.74999646
   0.75032786  0.24932346  0.91744577
   0.91745444  0.24932597  0.75032273
   0.00118343  0.33269234  0.66696035
   0.00117849  0.49972484  0.83396857
   0.16724783  0.33362740  0.83303064
   0.16735227  0.50050705  0.66600330
   0.25040779  0.41716103  0.91602786
   0.08430356  0.41678164  0.74985640
   0.08371909  0.58343489  0.91659574
   0.25159924  0.58386013  0.74784154
   0.33408812  0.33431465  0.66607022
   0.33412740  0.50052735  0.83228977
   0.50053253  0.33227441  0.83441328
   0.50944973  0.49174087  0.67494905
   0.58386340  0.41541120  0.91816070
   0.41752146  0.41685337  0.74976441
   0.41702746  0.58336024  0.91590341
   0.58712122  0.57958519  0.75352625
   0.66953691  0.32969362  0.66953467
   0.66965910  0.49701095  0.83720754
   0.83472223  0.33201449  0.83471483
   0.83722203  0.49700523  0.66966274
   0.91742660  0.41639677  0.91741593
   0.75206310  0.41461158  0.75205924
   0.75125685  0.58281194  0.91816751
   0.91817846  0.58281214  0.75125796
   0.00007075  0.66653481  0.66662363
   0.99968617  0.83332295  0.83296011
   0.16660053  0.66689280  0.83280718
   0.16546341  0.83430230  0.66590480
   0.25015750  0.74988410  0.91536122
   0.08324585  0.75019111  0.74947260
   0.08311123  0.91675250  0.91602503
   0.24988748  0.91680392  0.74878280
   0.32916468  0.67074115  0.66771205
   0.33274581  0.83414018  0.83230978
   0.50109119  0.66564251  0.83269110
   0.49675481  0.83815410  0.66832277
   0.58333705  0.74969048  0.91594248
   0.41925850  0.74763184  0.74494806
   0.41677484  0.91663183  0.91543340
   0.58300258  0.91554636  0.74834130
   0.67529563  0.65702229  0.67529846
   0.66628094  0.83264439  0.83248173
   0.83452222  0.66615970  0.83452041
   0.83247795  0.83264177  0.66629080
   0.91681752  0.75000455  0.91681872
   0.74993177  0.74915373  0.74993769
   0.74958801  0.91633402  0.91613492
   0.91613187  0.91633387  0.74959351
   0.52317860  0.64436027  0.52318352
 
 position of ions in cartesian coordinates  (Angst):
  10.63203326  0.00074942 10.63208123
  10.63157030  1.77580694  1.77187515
   1.76634871  0.00539559  1.76643042
   1.77186249  1.77585968 10.63156180
   2.65207393  0.89603226  2.65211991
   0.88255222  0.88945273  0.88258255
   0.88286021  2.66494546  2.65723254
   2.65723861  2.66498000  0.88281932
   3.54021117  0.00451890 10.62596395
   3.54017013  1.77968745  1.76661494
   5.31122254  0.01448407  1.75725318
   5.31560604  1.77458832 10.63328221
   6.19769891  0.89502993  2.65386330
   4.42802623  0.89451171  0.87628612
   4.43019065  2.66774145  2.65712803
   6.20217103  2.65873424  0.88990546
   7.08749629 10.63450218 10.63054822
   7.08714722  1.77690137  1.77397252
   8.85740518  0.00260305  1.77058875
   8.86330395  1.76932624  0.00396748
   9.74161683  0.88880853  2.65769671
   7.97216954  0.88619226  0.88677258
   7.97086482  2.66502793  2.66294452
   9.74737915  2.66012124  0.88919451
   0.00365056  3.54463017  0.00357411
  10.63023387  5.32012511  1.77374520
   1.77009544  3.54985759  1.77005650
   1.77381371  5.32018702 10.63018704
   2.65663852  4.44099525  2.65660556
   0.88626782  4.43500587  0.88620541
   0.87634561  6.20880898  2.65356300
   2.65356969  6.20885787  0.87635149
   3.54528609  3.54935949 10.63088995
   3.53578115  5.32444753  1.76098878
   5.31513835  3.54882974  1.77100976
   5.31872953  5.31770421  0.00039659
   6.19544983  4.45102389  2.67426203
   4.42914450  4.43610559  0.88495575
   4.42826052  6.21128754  2.65598509
   6.20093614  6.20604640  0.88788964
   7.09316941  3.53813673  0.01241105
   7.08302703  5.32269880  1.77953287
   8.85936494  3.54801043  1.77856740
   8.86931652  5.31452153  0.01236800
   9.74204580  4.43638489  2.66301565
   7.97481785  4.43235116  0.89636607
   7.95337856  6.20907224  2.67559177
   9.74802155  6.20475271  0.89026003
  10.63341987  7.09203218 10.63339999
  10.62594275  8.86725256  1.76835368
   1.75702499  7.09554924  1.75706124
   1.76826646  8.86730362 10.62602783
   2.63177423  7.98262925  2.63183022
   0.87695589  7.97834817  0.87702410
   0.87495331  9.75421686  2.65295324
   2.65285353  9.75427005  0.87502982
   3.54483603  7.09241289 10.62493418
   3.53595675  8.87075099  1.75724058
   5.31150998  7.09445799  1.76535903
   5.31473620  8.86267487 10.62505523
   6.19440158  7.98003646  2.65425194
   4.42674776  7.98036011  0.87679615
   4.42389494  9.77440947  2.63304953
   6.19800543  9.75427043  0.87598538
   7.08950210  7.08858216  0.00064599
   7.08179066  8.87275330  1.75967676
   8.85691916  7.09227721  1.77169651
   8.85847951  8.86236174 10.63167085
   9.73477419  7.97487291  2.66048769
   7.97058471  7.97821712  0.88527584
   7.96316136  9.75013775  2.65758768
   9.74186524  9.74961858  0.88393707
  10.62589409  0.00442979  3.54029718
  10.63333709  1.77457221  5.31563460
   1.75721982  0.01448935  5.31133059
   1.76662400  1.77968189  3.54020648
   2.65387338  0.89505899  6.19775762
   0.87626690  0.89447386  4.42809878
   0.89004130  2.65879274  6.20213938
   2.65720764  2.66778876  4.43018598
   3.53581808  0.01465172  3.53590275
   3.54369897  1.78129888  5.31420101
   5.31231700  0.00944203  5.31243297
   5.31417240  1.78126658  3.54368960
   6.20182145  0.88595255  6.20187952
   4.42641209  0.89521591  4.42646004
   4.43419877  2.66548921  6.20282392
   6.20285549  2.66542058  4.43415812
   7.08238356  0.01201835  3.53620738
   7.08952114  1.77280010  5.31871942
   8.85932767  0.00384481  5.31622244
   8.85795212  1.77669026  3.54532106
   9.74881560  0.88404219  6.20298996
   7.97099069  0.88760971  4.42986209
   7.98901197  2.64426309  6.20902842
   9.74972002  2.65766549  4.43106543
  10.63098117  3.54929633  3.54526436
   0.00054634  5.31767998  5.31873349
   1.77119015  3.54894541  5.31509972
   1.76103809  5.32445769  3.53575623
   2.67451605  4.45127423  6.19533783
   0.88507181  4.43610676  4.42911653
   0.88804963  6.20610429  6.20094049
   2.65601663  6.21129379  4.42822553
   3.53749221  3.54835681  3.53740829
   3.50642869  5.30213210  5.27532111
   5.32550892  3.54992647  5.32546863
   5.27550496  5.30191944  3.50615543
   6.23923829  4.39625919  6.23923652
   4.44760608  4.46919164  4.44753431
   7.08375142  3.55527181  3.55294041
   7.17823495  5.22948479  5.41808438
   8.87410403  3.53364502  5.32315460
   8.85151802  5.32291398  3.55339080
   9.76479414  4.41785764  6.20938060
   7.97385686  4.43306108  4.44031648
   8.01385483  6.16370964  6.24421284
   9.74069094  6.20390803  4.43512053
  10.62494865  7.09231976  3.54490030
  10.62504278  8.86260706  5.31485829
   1.76550370  7.09449133  5.31159207
   1.75719554  8.87072188  3.53607081
   2.65428476  7.98014574  6.19457691
   0.87680586  7.98031181  4.42684620
   0.87595506  9.75427657  6.19811468
   2.63297073  9.77443247  4.42402207
   3.51515661  7.10835869  3.51520601
   3.51738656  8.88953793  5.29769876
   5.29751776  8.88947411  3.51749867
   4.31187281  8.08988256  4.31211260
   4.43162410  9.75180603  6.19437617
   6.19419252  9.75181312  4.43169628
   7.10109790  7.13303286  3.50038353
   7.10743845  8.91382265  5.28307712
   8.85568945  7.07893296  5.32924148
   8.85142066  8.87096561  3.53878449
   9.74104095  7.97288901  6.20388843
   7.92219224  7.95071930  4.45907764
   7.95846968  9.73676911  6.20040708
   9.73550530  9.74824559  4.43253696
  10.63053523 10.63451870  7.08756622
   0.00400731  1.76936525  8.86329077
   1.77056388  0.00266952  8.85746377
   1.77403665  1.77696983  7.08715072
   2.65766133  0.88889646  9.74163762
   0.88678841  0.88624666  7.97219113
   0.88925977  2.66018560  9.74731328
   2.66302493  2.66515411  7.97079392
   3.53618960  0.01203582  7.08249088
   3.54531951  1.77678302  8.85792859
   5.31613843  0.00390312  8.85940414
   5.31870344  1.77284003  7.08953071
   6.20294371  0.88406727  9.74883073
   4.42983021  0.88767193  7.97103554
   4.43107396  2.65774206  9.74964463
   6.20903425  2.64429766  7.98897669
   7.08598913 10.63200258  7.08609816
   7.09364700  1.76219430  8.86972740
   8.86034642 10.63002108  8.86038215
   8.86974817  1.76219174  7.09365247
   9.74790444  0.88373686  9.74790285
   7.97618788  0.87863931  7.97621253
   7.97973692  2.65155506  9.75703597
   9.75712815  2.65158178  7.97968236
   0.01258582  3.53818308  7.09312351
   0.01253322  5.31457382  8.86925591
   1.77868070  3.54812744  8.85928108
   1.77979144  5.32289263  7.08294524
   2.66308690  4.43650769  9.74195655
   0.89656834  4.43247281  7.97472296
   0.89035254  6.20483018  9.74799592
   2.67575799  6.20935259  7.95329490
   3.55302727  3.55543636  7.08365689
   3.55344501  5.32310843  8.85140190
   5.32316362  3.53373838  8.87398543
   5.41799798  5.22966431  7.17808332
   6.20938738  4.41789824  9.76463931
   4.44034078  4.43323564  7.97374467
   4.43508717  6.20403632  9.74063300
   6.24403430  6.16388862  8.01375184
   7.12052521  3.50629170  7.12050139
   7.12182468  5.28571154  8.90370235
   8.87727107  3.53097417  8.87719246
   8.90385653  5.28565078  7.12186335
   9.75683211  4.42837977  9.75671864
   7.99819127  4.40939421  7.99815021
   7.98961677  6.19820509  9.76471173
   9.76482812  6.19820722  7.98962853
   0.00075247  7.08859789  7.08954243
  10.63166270  8.86238975  8.85853100
   1.77179667  7.09240509  8.85690459
   1.75970338  8.87280514  7.08189765
   2.66042505  7.97501758  9.73486684
   0.88531966  7.97828267  7.97064123
   0.88388795  9.74966308  9.74192637
   2.65755345  9.75020990  7.96330522
   3.50066642  7.13333230  7.10111776
   3.53875173  8.87108098  8.85161475
   5.32910489  7.07910826  8.85567008
   5.28298747  8.91376908  7.10761282
   6.20378963  7.97295838  9.74104846
   4.45881423  7.95106482  7.92252276
   4.43240055  9.74837971  9.73563444
   6.20023254  9.73683576  7.95860988
   7.18176921  6.98743219  7.18179929
   7.08589792  8.85517323  8.85344334
   8.87514403  7.08460856  8.87512478
   8.85340324  8.85514538  7.08600278
   9.75035457  7.97629859  9.75036730
   7.97552458  7.96725014  7.97558746
   7.97186867  9.74521251  9.74309511
   9.74306264  9.74521087  7.97192716
   5.56400455  6.85277166  5.56405686
 


--------------------------------------------------------------------------------------------------------


 use parallel FFT for orbitals z direction half grid
 k-point   1 :   0.0000 0.0000 0.0000  plane waves:    9775

 maximum and minimum number of plane-waves per node :      1225     1219

 maximum number of plane-waves:      9775
 maximum index in each direction: 
   IXMAX=   16   IYMAX=   16   IZMAX=   16
   IXMIN=  -16   IYMIN=  -16   IZMIN=    0


 parallel 3D FFT for wavefunctions:
    minimum data exchange during FFTs selected (reduces bandwidth)
 parallel 3D FFT for charge:
    minimum data exchange during FFTs selected (reduces bandwidth)


 total amount of memory used by VASP MPI-rank0    81825. kBytes
=======================================================================

   base      :      30000. kBytes
   nonl-proj :       4798. kBytes
   fftplans  :       4899. kBytes
   grid      :      13063. kBytes
   one-center:       1327. kBytes
   wavefun   :      27738. kBytes
 
     INWAV:  cpu time    0.4024: real time    0.4275
 Broyden mixing: mesh for mixing (old mesh)
   NGX = 33   NGY = 33   NGZ = 33
  (NGX  =140   NGY  =140   NGZ  =140)
  gives a total of  35937 points

 charge density for first step will be calculated from the start-wavefunctions


--------------------------------------------------------------------------------------------------------


 Maximum index for augmentation-charges          717 (set IRDMAX)


--------------------------------------------------------------------------------------------------------


 initial charge from wavefunction
 First call to EWALD:  gamma=   0.167
 Maximum number of real-space cells 3x 3x 3
 Maximum number of reciprocal cells 3x 3x 3

    FEWALD:  cpu time    0.0100: real time    0.0103


--------------------------------------- Iteration      1(   1)  ---------------------------------------


    POTLOK:  cpu time    0.1547: real time    0.1652
atom = 213  type =  2  l = 3
 
 onsite density matrix
 
spin component  1
 
  0.6698  0.0981 -0.0858 -0.1257  0.0117  0.2603 -0.2491
  0.0981  0.0917 -0.1086  0.1374 -0.0573  0.0384 -0.0136
 -0.0858 -0.1086  0.3436 -0.3799  0.1520 -0.0459  0.0141
 -0.1257  0.1374 -0.3799  0.5626 -0.2072 -0.0275  0.0750
  0.0117 -0.0573  0.1520 -0.2072  0.1046  0.0097 -0.0051
  0.2603  0.0384 -0.0459 -0.0275  0.0097  0.1483 -0.1043
 -0.2491 -0.0136  0.0141  0.0750 -0.0051 -0.1043  0.1262
 
spin component  2
 
  0.0211  0.0081 -0.0101 -0.0009 -0.0020  0.0015  0.0060
  0.0081  0.0318  0.0094  0.0085 -0.0050 -0.0015  0.0099
 -0.0101  0.0094  0.0323  0.0073  0.0061 -0.0000  0.0027
 -0.0009  0.0085  0.0073  0.0137 -0.0021 -0.0004 -0.0003
 -0.0020 -0.0050  0.0061 -0.0021  0.0340  0.0011  0.0130
  0.0015 -0.0015 -0.0000 -0.0004  0.0011  0.0430 -0.0041
  0.0060  0.0099  0.0027 -0.0003  0.0130 -0.0041  0.0253
 
 occupancies and eigenvectors
 
  o =  0.0073  v =  0.0000  0.0000  0.0000  0.0000  0.0000  0.0000  0.0000 -0.3380  0.5922 -0.2505 -0.4646  0.3030 -0.0214 -0.4052      0.0000  0.0000  0.0000  0.0000  0.0000  0.0000  0.0000  0.0000  0.0000  0.0000  0.0000  0.0000  0.0000  0.0000
  o =  0.0075  v = -0.3528  0.5827 -0.3612 -0.3021  0.2879 -0.0571 -0.4776  0.0000  0.0000  0.0000  0.0000  0.0000  0.0000  0.0000      0.0000  0.0000  0.0000  0.0000  0.0000  0.0000  0.0000  0.0000  0.0000  0.0000  0.0000  0.0000  0.0000  0.0000
  o =  0.0092  v =  0.0000  0.0000  0.0000  0.0000  0.0000  0.0000  0.0000  0.6185 -0.0866  0.4892 -0.5051  0.0460 -0.0782 -0.3274      0.0000  0.0000  0.0000  0.0000  0.0000  0.0000  0.0000  0.0000  0.0000  0.0000  0.0000  0.0000  0.0000  0.0000
  o =  0.0104  v = -0.1512  0.1458 -0.2316 -0.4926 -0.6219  0.3824  0.3557  0.0000  0.0000  0.0000  0.0000  0.0000  0.0000  0.0000      0.0000  0.0000  0.0000  0.0000  0.0000  0.0000  0.0000  0.0000  0.0000  0.0000  0.0000  0.0000  0.0000  0.0000
  o =  0.0109  v =  0.0000  0.0000  0.0000  0.0000  0.0000  0.0000  0.0000  0.3105  0.0298 -0.1394  0.6371  0.4338 -0.0878 -0.5305      0.0000  0.0000  0.0000  0.0000  0.0000  0.0000  0.0000  0.0000  0.0000  0.0000  0.0000  0.0000  0.0000  0.0000
  o =  0.0339  v =  0.2150 -0.0835 -0.5235 -0.2088  0.4833 -0.2282  0.5860  0.0000  0.0000  0.0000  0.0000  0.0000  0.0000  0.0000      0.0000  0.0000  0.0000  0.0000  0.0000  0.0000  0.0000  0.0000  0.0000  0.0000  0.0000  0.0000  0.0000  0.0000
  o =  0.0378  v =  0.0000  0.0000  0.0000  0.0000  0.0000  0.0000  0.0000 -0.5841 -0.1555  0.5838  0.1699 -0.2065 -0.1657 -0.4414      0.0000  0.0000  0.0000  0.0000  0.0000  0.0000  0.0000  0.0000  0.0000  0.0000  0.0000  0.0000  0.0000  0.0000
  o =  0.0416  v =  0.0000  0.0000  0.0000  0.0000  0.0000  0.0000  0.0000 -0.2072 -0.5647 -0.1161 -0.2349  0.5704 -0.4737  0.1402      0.0000  0.0000  0.0000  0.0000  0.0000  0.0000  0.0000  0.0000  0.0000  0.0000  0.0000  0.0000  0.0000  0.0000
  o =  0.0433  v =  0.0000  0.0000  0.0000  0.0000  0.0000  0.0000  0.0000  0.1484  0.1597 -0.2660  0.0220 -0.4822 -0.8024 -0.0693      0.0000  0.0000  0.0000  0.0000  0.0000  0.0000  0.0000  0.0000  0.0000  0.0000  0.0000  0.0000  0.0000  0.0000
  o =  0.0474  v = -0.2240  0.0299  0.0941  0.2088  0.4604  0.8076  0.1797  0.0000  0.0000  0.0000  0.0000  0.0000  0.0000  0.0000      0.0000  0.0000  0.0000  0.0000  0.0000  0.0000  0.0000  0.0000  0.0000  0.0000  0.0000  0.0000  0.0000  0.0000
  o =  0.0511  v =  0.0000  0.0000  0.0000  0.0000  0.0000  0.0000  0.0000 -0.0248 -0.5218 -0.5033 -0.1966 -0.3425  0.3001 -0.4773      0.0000  0.0000  0.0000  0.0000  0.0000  0.0000  0.0000  0.0000  0.0000  0.0000  0.0000  0.0000  0.0000  0.0000
  o =  0.0574  v =  0.1917  0.7556  0.4418  0.1120  0.0134 -0.1523  0.4016  0.0000  0.0000  0.0000  0.0000  0.0000  0.0000  0.0000      0.0000  0.0000  0.0000  0.0000  0.0000  0.0000  0.0000  0.0000  0.0000  0.0000  0.0000  0.0000  0.0000  0.0000
  o =  0.9015  v =  0.7487  0.2108 -0.3840  0.2331 -0.1323  0.3201 -0.2708  0.0000  0.0000  0.0000  0.0000  0.0000  0.0000  0.0000      0.0000  0.0000  0.0000  0.0000  0.0000  0.0000  0.0000  0.0000  0.0000  0.0000  0.0000  0.0000  0.0000  0.0000
  o =  0.9887  v = -0.3988  0.1264 -0.4363  0.7156 -0.2588 -0.1435  0.1871  0.0000  0.0000  0.0000  0.0000  0.0000  0.0000  0.0000      0.0000  0.0000  0.0000  0.0000  0.0000  0.0000  0.0000  0.0000  0.0000  0.0000  0.0000  0.0000  0.0000  0.0000
 
    SETDIJ:  cpu time    0.0677: real time    0.0677
    TRIAL :  cpu time    3.2598: real time    3.4939
    CORREC:  cpu time    0.9154: real time    0.9908
    CHARGE:  cpu time    0.1663: real time    0.1765
    --------------------------------------------
      LOOP:  cpu time    4.5766: real time    4.9070

 eigenvalue-minimisations  :     0
 total energy-change (2. order) :-0.1919711E+04  (-0.2028305E-04)
 number of electron     860.9999988 magnetization       1.0000001
 augmentation part       20.1491759 magnetization       1.4763212

 Free energy of the ion-electron system (eV)
  ---------------------------------------------------
  alpha Z        PSCENC =      3257.64597043
  Ewald energy   TEWEN  =    -38308.86832634
  -Hartree energ DENC   =     -2959.73080824
  -exchange      EXHF   =         0.00000000
  -V(xc)+E(xc)   XCENC  =      3050.93993559
  PAW double counting   =     88070.98984022   -88222.89621973
  entropy T*S    EENTRO =        -0.00000000
  eigenvalues    EBANDS =       712.05308564
  atomic energy  EATOM  =     32480.15532100
  ---------------------------------------------------
  free energy    TOTEN  =     -1919.71120142 eV

  energy without entropy =    -1919.71120142  energy(sigma->0) =    -1919.71120142


--------------------------------------------------------------------------------------------------------




--------------------------------------- Iteration      1(   2)  ---------------------------------------


    POTLOK:  cpu time    0.1427: real time    0.1578
atom = 213  type =  2  l = 3
 
[...]
     10.63157      1.77581      1.77188        -0.010333     -0.008186     -0.016038
      1.76635      0.00540      1.76643        -0.010676     -0.000853     -0.010255
      1.77186      1.77586     10.63156        -0.016093     -0.008321     -0.009306
      2.65207      0.89603      2.65212         0.028329      0.000471      0.029862
      0.88255      0.88945      0.88258         0.019318     -0.002026      0.019850
      0.88286      2.66495      2.65723         0.014897      0.012484      0.020030
      2.65724      2.66498      0.88282         0.020476      0.010600      0.016172
      3.54021      0.00452     10.62596        -0.029765      0.001965     -0.003017
      3.54017      1.77969      1.76661        -0.060273     -0.006689     -0.016769
      5.31122      0.01448      1.75725        -0.060296      0.031537     -0.036114
      5.31561      1.77459     10.63328        -0.054287      0.005773     -0.006783
      6.19770      0.89503      2.65386        -0.006437     -0.006356     -0.012537
      4.42803      0.89451      0.87629         0.076448      0.018785      0.002563
      4.43019      2.66774      2.65713         0.095262      0.037094      0.046315
      6.20217      2.65873      0.88991         0.043294      0.005789      0.017443
      7.08750     10.63450     10.63055         0.009456     -0.008634      0.004774
      7.08715      1.77690      1.77397         0.002783     -0.009431      0.007131
      8.85741      0.00260      1.77059         0.001924      0.000572     -0.021682
      8.86330      1.76933      0.00397        -0.005855     -0.005533     -0.005097
      9.74162      0.88881      2.65770         0.001611      0.003394      0.012967
      7.97217      0.88619      0.88677         0.002798      0.000525      0.006413
      7.97086      2.66503      2.66294        -0.015046     -0.001291     -0.008045
      9.74738      2.66012      0.88919         0.011206     -0.003512      0.009270
      0.00365      3.54463      0.00357        -0.004973     -0.006673     -0.003498
     10.63023      5.32013      1.77375         0.004483     -0.021666      0.008894
      1.77010      3.54986      1.77006        -0.030075     -0.031577     -0.029804
      1.77381      5.32019     10.63019         0.008758     -0.020164      0.004090
      2.65664      4.44100      2.65661         0.018534      0.031216      0.019130
      0.88627      4.43501      0.88621         0.008467      0.010587      0.008312
      0.87635      6.20881      2.65356         0.025016      0.029522     -0.002172
      2.65357      6.20886      0.87635         0.002041      0.025076      0.027127
      3.54529      3.54936     10.63089        -0.011295     -0.008413     -0.016675
      3.53578      5.32445      1.76099        -0.003540     -0.066085     -0.027736
      5.31514      3.54883      1.77101        -0.086833     -0.012599     -0.049671
      5.31873      5.31770      0.00040         0.006855     -0.006421     -0.023963
      6.19545      4.45102      2.67426         0.071133      0.054570      0.074681
      4.42914      4.43611      0.88496         0.009935      0.017146      0.017795
      4.42826      6.21129      2.65599         0.039981      0.025298      0.112132
      6.20094      6.20605      0.88789        -0.008881      0.005961      0.008029
      7.09317      3.53814      0.01241        -0.033987     -0.001069      0.003815
      7.08303      5.32270      1.77953        -0.014321      0.010832     -0.042181
      8.85936      3.54801      1.77857        -0.002718     -0.001544      0.004019
      8.86932      5.31452      0.01237         0.001326      0.019928      0.006347
      9.74205      4.43638      2.66302         0.008159      0.017258     -0.010902
      7.97482      4.43235      0.89637         0.007140     -0.005668      0.004915
      7.95338      6.20907      2.67559         0.006118      0.037900      0.021385
      9.74802      6.20475      0.89026         0.007015     -0.004240      0.006270
     10.63342      7.09203     10.63340        -0.013348      0.026654     -0.014867
     10.62594      8.86725      1.76835        -0.003352      0.005701     -0.014842
      1.75702      7.09555      1.75706        -0.037009      0.057700     -0.031873
      1.76827      8.86730     10.62603        -0.016483      0.007629     -0.003074
      2.63177      7.98263      2.63183        -0.015101     -0.150458     -0.033454
      0.87696      7.97835      0.87702        -0.005894     -0.034623     -0.007566
      0.87495      9.75422      2.65295         0.007980     -0.018571      0.018411
      2.65285      9.75427      0.87503         0.021681     -0.015535      0.008393
      3.54484      7.09241     10.62493         0.013699     -0.009821     -0.000443
      3.53596      8.87075      1.75724         0.005972     -0.001538      0.026601
      5.31151      7.09446      1.76536         0.024690     -0.003644     -0.037634
      5.31474      8.86267     10.62506         0.014599     -0.007333      0.005046
      6.19440      7.98004      2.65425        -0.032988      0.003974      0.100878
      4.42675      7.98036      0.87680        -0.019884      0.005685      0.018252
      4.42389      9.77441      2.63305         0.165190      0.037525     -0.019075
      6.19801      9.75427      0.87599        -0.022954      0.007794      0.021645
      7.08950      7.08858      0.00065         0.009198     -0.005604     -0.021337
      7.08179      8.87275      1.75968         0.036876     -0.017605     -0.031580
      8.85692      7.09228      1.77170         0.010622      0.018658     -0.048931
      8.85848      8.86236     10.63167         0.003349     -0.002647     -0.018941
      9.73477      7.97487      2.66049         0.008745     -0.008555      0.008993
      7.97058      7.97822      0.88528        -0.009760      0.006637      0.016376
      7.96316      9.75014      2.65759        -0.012318      0.006987      0.008105
      9.74187      9.74962      0.88394         0.000930      0.003593      0.011332
     10.62589      0.00443      3.54030        -0.006024      0.002399     -0.033152
     10.63334      1.77457      5.31563        -0.009064      0.005611     -0.055766
      1.75722      0.01449      5.31133        -0.035162      0.039918     -0.064412
      1.76662      1.77968      3.54021        -0.016801     -0.008534     -0.059465
      2.65387      0.89506      6.19776        -0.018419     -0.004590     -0.014370
      0.87627      0.89447      4.42810         0.000332      0.016596      0.078090
      0.89004      2.65879      6.20214         0.014040      0.009088      0.045215
      2.65721      2.66779      4.43019         0.042021      0.034757      0.089305
      3.53582      0.01465      3.53590         0.006629     -0.026893      0.003070
      3.54370      1.78130      5.31420         0.015354     -0.022220      0.017025
      5.31232      0.00944      5.31243         0.016918     -0.009728      0.010270
      5.31417      1.78127      3.54369         0.017950     -0.019635      0.013448
      6.20182      0.88595      6.20188        -0.011907      0.005968     -0.012446
      4.42641      0.89522      4.42646        -0.013624     -0.008764     -0.014165
      4.43420      2.66549      6.20282        -0.016912      0.004623     -0.011661
      6.20286      2.66542      4.43416        -0.010223      0.005098     -0.017435
      7.08238      0.01202      3.53621         0.005276      0.006945      0.013544
      7.08952      1.77280      5.31872         0.007742      0.014225      0.008206
      8.85933      0.00384      5.31622        -0.002536      0.019229     -0.046908
      8.85795      1.77669      3.54532         0.002727      0.004984     -0.001891
      9.74882      0.88404      6.20299         0.011427      0.000014      0.029191
      7.97099      0.88761      4.42986        -0.009922      0.002185     -0.007176
      7.98901      2.64426      6.20903         0.026089     -0.005986      0.035706
      9.74972      2.65767      4.43107         0.010822     -0.002607      0.027415
     10.63098      3.54930      3.54526        -0.020605     -0.011718     -0.009079
      0.00055      5.31768      5.31873        -0.026593     -0.006734      0.006532
      1.77119      3.54895      5.31510        -0.050124     -0.017319     -0.096038
      1.76104      5.32446      3.53576        -0.041562     -0.069174     -0.000370
      2.67452      4.45127      6.19534         0.073831      0.052958      0.081535
      0.88507      4.43611      4.42912         0.013456      0.018452      0.005625
      0.88805      6.20610      6.20094         0.003015      0.004532     -0.010846
      2.65602      6.21129      4.42823         0.097371      0.045810     -0.001166
      3.53749      3.54836      3.53741        -0.154342      0.104498     -0.138968
      3.50643      5.30213      5.27532        -0.929163     -0.046721     -0.012950
      5.32551      3.54993      5.32547         0.047963      0.000528      0.042208
      5.27550      5.30192      3.50616         0.035982     -0.112133     -0.921429
      6.23924      4.39626      6.23924         0.250729     -0.153410      0.226615
      4.44761      4.46919      4.44753         0.444241      0.300642      0.443055
      7.08375      3.55527      3.55294         0.035778     -0.012015      0.016843
      7.17823      5.22948      5.41808         0.318722     -0.322973      0.282455
      8.87410      3.53365      5.32315        -0.013479      0.005223     -0.044398
      8.85152      5.32291      3.55339        -0.003971     -0.031745      0.014851
      9.76479      4.41786      6.20938         0.004224     -0.014841      0.028302
      7.97386      4.43306      4.44032         0.003056      0.007410      0.031140
      8.01385      6.16371      6.24421         0.173205     -0.229711      0.164163
      9.74069      6.20391      4.43512         0.003637      0.005339     -0.016876
     10.62495      7.09232      3.54490        -0.002906     -0.008915      0.014370
     10.62504      8.86261      5.31486         0.000285     -0.005159      0.012200
      1.76550      7.09449      5.31159        -0.041999     -0.000977      0.024373
      1.75720      8.87072      3.53607         0.026212      0.002992      0.007759
      2.65428      7.98015      6.19458         0.095941     -0.003503     -0.025136
      0.87681      7.98031      4.42685         0.017324      0.006427     -0.020927
      0.87596      9.75428      6.19811         0.024078      0.004755     -0.021600
      2.63297      9.77443      4.42402        -0.037607      0.019849      0.172127
      3.51516      7.10836      3.51521        -0.070676      0.270814     -0.047814
      3.51739      8.88954      5.29770        -0.085473      0.110404     -0.290329
      5.29752      8.88947      3.51750        -0.290805      0.069437     -0.097786
      4.31187      8.08988      4.31211        -0.372353      0.479627     -0.316936
      4.43162      9.75181      6.19438        -0.071225     -0.028417      0.004490
      6.19419      9.75181      4.43170         0.042538     -0.026836     -0.039003
      7.10110      7.13303      3.50038         0.110125     -0.018301     -0.859274
      7.10744      8.91382      5.28308        -0.029456      0.542012     -0.124120
      8.85569      7.07893      5.32924        -0.041191     -0.026515      0.026927
      8.85142      8.87097      3.53878        -0.039783     -0.005043     -0.072419
      9.74104      7.97289      6.20389         0.011881      0.013293     -0.012124
      7.92219      7.95072      4.45908        -0.052734     -0.176008      0.241725
      7.95847      9.73677      6.20041        -0.027572     -0.020041      0.043598
      9.73551      9.74825      4.43254         0.005271     -0.010771      0.042401
     10.63054     10.63452      7.08757         0.001648     -0.009920      0.007104
      0.00401      1.76937      8.86329        -0.005818     -0.005965     -0.005692
      1.77056      0.00267      8.85746        -0.021761      0.000647      0.002403
      1.77404      1.77697      7.08715         0.005298     -0.012555      0.004756
      2.65766      0.88890      9.74164         0.012226      0.004523      0.000497
      0.88679      0.88625      7.97219         0.004435      0.000420      0.003152
      0.88926      2.66019      9.74731         0.008070     -0.004522      0.011822
      2.66302      2.66515      7.97079        -0.009962     -0.002027     -0.015949
      3.53619      0.01204      7.08249         0.023081      0.021532      0.010509
      3.54532      1.77678      8.85793         0.001367      0.006817      0.007942
      5.31614      0.00390      8.85940        -0.048952      0.021486      0.004732
      5.31870      1.77284      7.08953         0.009555      0.014378      0.007322
      6.20294      0.88407      9.74883         0.031841      0.000267      0.008765
      4.42983      0.88767      7.97104        -0.009217      0.005451     -0.012265
      4.43107      2.65774      9.74964         0.028990     -0.003850      0.011012
      6.20903      2.64430      7.98898         0.036361     -0.005457      0.024196
      7.08599     10.63200      7.08610        -0.002824      0.027785     -0.009127
      7.09365      1.76219      8.86973        -0.033205     -0.010058     -0.000677
      8.86035     10.63002      8.86038        -0.009001     -0.008838     -0.009215
      8.86975      1.76219      7.09365        -0.000648     -0.010825     -0.034244
      9.74790      0.88374      9.74790         0.011583     -0.002336      0.012502
      7.97619      0.87864      7.97621         0.006525      0.004971      0.007890
      7.97974      2.65156      9.75704         0.010465     -0.007364      0.009574
      9.75713      2.65158      7.97968         0.008415     -0.007419      0.010620
      0.01259      3.53818      7.09312         0.002504     -0.001980     -0.031721
      0.01253      5.31457      8.86926         0.004298      0.023097      0.001267
      1.77868      3.54813      8.85928         0.002581     -0.002747     -0.001396
      1.77979      5.32289      7.08295        -0.049191      0.009659     -0.010508
      2.66309      4.43651      9.74196        -0.010213      0.013358      0.009543
      0.89657      4.43247      7.97472         0.002762     -0.007245      0.008452
      0.89035      6.20483      9.74800         0.009345     -0.010186      0.009269
      2.67576      6.20935      7.95329         0.026056      0.007707      0.002422
      3.55303      3.55544      7.08366         0.017486     -0.018560      0.035420
      3.55345      5.32311      8.85140         0.011730     -0.033840     -0.000346
      5.32316      3.53374      8.87399        -0.048247      0.003654     -0.009835
      5.41800      5.22966      7.17808         0.225135     -0.352591      0.245820
      6.20939      4.41790      9.76464         0.033250     -0.021245      0.010912
      4.44034      4.43324      7.97374         0.040488      0.000210      0.015809
      4.43509      6.20404      9.74063        -0.015262      0.005271      0.007707
      6.24403      6.16389      8.01375         0.210834     -0.197983      0.152300
      7.12053      3.50629      7.12050        -0.063556     -0.081800     -0.069938
      7.12182      5.28571      8.90370        -0.061789      0.045406      0.050428
      8.87727      3.53097      8.87719        -0.021431      0.013298     -0.020464
      8.90386      5.28565      7.12186         0.055103      0.065077     -0.050257
      9.75683      4.42838      9.75672         0.006834     -0.007711      0.007721
      7.99819      4.40939      7.99815        -0.014203      0.018524     -0.016276
      7.98962      6.19821      9.76471         0.022786     -0.025276      0.016972
      9.76483      6.19821      7.98963         0.019829     -0.032510      0.028337
      0.00075      7.08860      7.08954        -0.025574     -0.004557      0.006791
     10.63166      8.86239      8.85853        -0.018581     -0.000573      0.002320
      1.77180      7.09241      8.85690        -0.047992      0.025562      0.003879
      1.75970      8.87281      7.08190        -0.025762     -0.017030      0.034462
      2.66043      7.97502      9.73487         0.012766     -0.014696      0.011107
      0.88532      7.97828      7.97064         0.012427      0.004769     -0.007798
      0.88389      9.74966      9.74193         0.010711      0.003919      0.003221
      2.65755      9.75021      7.96331         0.007123      0.010232     -0.012103
      3.50067      7.13333      7.10112        -0.767906     -0.021158      0.070501
      3.53875      8.87108      8.85161        -0.052721      0.011611     -0.033403
      5.32910      7.07911      8.85567         0.025865     -0.036162     -0.037341
      5.28299      8.91377      7.10761        -0.145179      0.609554     -0.055333
      6.20379      7.97296      9.74105        -0.010121      0.013191      0.012080
      4.45881      7.95106      7.92252         0.253093     -0.176118     -0.043946
      4.43240      9.74838      9.73563         0.037027     -0.006772      0.007179
      6.20023      9.73684      7.95861         0.043354     -0.019704     -0.027470
      7.18177      6.98743      7.18180         0.181609     -0.247776      0.258868
      7.08590      8.85517      8.85344         0.027032     -0.018353     -0.000362
      8.87514      7.08461      8.87512        -0.021927      0.018801     -0.022388
      8.85340      8.85515      7.08600        -0.005604     -0.017219      0.022365
      9.75035      7.97630      9.75037         0.010228     -0.003925      0.012487
      7.97552      7.96725      7.97559         0.010286      0.019611      0.011236
      7.97187      9.74521      9.74310        -0.007604      0.010965      0.014918
      9.74306      9.74521      7.97193         0.014018      0.009224     -0.005282
      5.56400      6.85277      5.56406         0.344988     -0.430233      0.422419
 -----------------------------------------------------------------------------------
    total drift:                                0.001309     -0.001665      0.004755


--------------------------------------------------------------------------------------------------------



  FREE ENERGIE OF THE ION-ELECTRON SYSTEM (eV)
  ---------------------------------------------------
  free  energy   TOTEN  =     -1919.71136366 eV

  energy  without entropy=    -1919.71136366  energy(sigma->0) =    -1919.71136366
 


--------------------------------------------------------------------------------------------------------


    POTLOK:  cpu time    0.2138: real time    0.2256


--------------------------------------------------------------------------------------------------------


 writing wavefunctions
     LOOP+:  cpu time   76.0437: real time   81.8108
    4ORBIT:  cpu time    0.0000: real time    0.0000

 total amount of memory used by VASP MPI-rank0    81825. kBytes
=======================================================================

   base      :      30000. kBytes
   nonl-proj :       4798. kBytes
   fftplans  :       4899. kBytes
   grid      :      13063. kBytes
   one-center:       1327. kBytes
   wavefun   :      27738. kBytes
 
  
  
 General timing and accounting informations for this job:
 ========================================================
  
                  Total CPU time used (sec):       87.250
                            User time (sec):       79.981
                          System time (sec):        7.269
                         Elapsed time (sec):       95.272
  
                   Maximum memory used (kb):      351812.
                   Average memory used (kb):          N/A
  
                          Minor page faults:       246636
                          Major page faults:            0
                 Voluntary context switches:         3023
