 vasp.6.2.1 16May21 (build Sep 27 2021 21:11:04) gamma-only                     
  
 executed on             LinuxIFC date 2023.05.06  23:56:08
 running   24 mpi-ranks, with    1 threads/rank
 distrk:  each k-point on   24 cores,    1 groups
 distr:  one band on NCORE=   8 cores,    3 groups


--------------------------------------------------------------------------------------------------------


 INCAR:
   GGA = PE
   ISTART = 1
   ISPIN = 2
   ENCUT = 370
   ENAUG = 740
   EDIFF = 1E-5
   IBRION = 2
   POTIM = 0.2
   ALGO = All
   NSW = 0
   EDIFFG = -1E-2
   ISMEAR = 0
   SIGMA = 0.01
   ISIF = 1
   LREAL = .FALSE.
   ISYM = 0
   PREC = Accurate
   NCORE = 8
   NELM = 60
   NWRITE = 2
   SYMPREC = 1.0e-8

 POTCAR:    PAW_PBE C 08Apr2002                   
 POTCAR:    PAW_PBE Pr 23Dec2003                  
 -----------------------------------------------------------------------------
|                                                                             |
|           W    W    AA    RRRRR   N    N  II  N    N   GGGG   !!!           |
|           W    W   A  A   R    R  NN   N  II  NN   N  G    G  !!!           |
|           W    W  A    A  R    R  N N  N  II  N N  N  G       !!!           |
|           W WW W  AAAAAA  RRRRR   N  N N  II  N  N N  G  GGG   !            |
|           WW  WW  A    A  R   R   N   NN  II  N   NN  G    G                |
|           W    W  A    A  R    R  N    N  II  N    N   GGGG   !!!           |
|                                                                             |
|     You use a magnetic or noncollinear calculation, but did not specify     |
|     the initial magnetic moment with the MAGMOM tag. Note that a            |
|     default of 1 will be used for all atoms. This ferromagnetic setup       |
|     may break the symmetry of the crystal, in particular it may rule        |
|     out finding an antiferromagnetic solution. Thence, we recommend         |
|     setting the initial magnetic moment manually or verifying carefully     |
|     that this magnetic setup is desired.                                    |
|                                                                             |
 -----------------------------------------------------------------------------

 POTCAR:    PAW_PBE C 08Apr2002                   
   SHA256 =  253f7b50bb8d59471dbedb8285d89021f4a42ed1a2c5d38a03a736e69125dd95 C/POTCAR              
   COPYR  = (c) Copyright 08Apr2002 Georg Kresse                                                    
   COPYR  = This file is part of the software VASP. Any use, copying, and all other rights are regul
   COPYR  = If you do not have a valid VASP license, you may not use, copy or distribute this file. 
   VRHFIN =C: s2p2                                                                                  
   LEXCH  = PE                                                                                      
   EATOM  =   147.1560 eV,   10.8157 Ry                                                             
                                                                                                    
   TITEL  = PAW_PBE C 08Apr2002                                                                     
   LULTRA =        F    use ultrasoft PP ?                                                          
   IUNSCR =        1    unscreen: 0-lin 1-nonlin 2-no                                               
   RPACOR =    1.200    partial core radius                                                         
   POMASS =   12.011; ZVAL   =    4.000    mass and valenz                                          
   RCORE  =    1.500    outmost cutoff radius                                                       
   RWIGS  =    1.630; RWIGS  =    0.863    wigner-seitz radius (au A)                               
   ENMAX  =  400.000; ENMIN  =  300.000 eV                                                          
   ICORE  =        2    local potential                                                             
   LCOR   =        T    correct aug charges                                                         
   LPAW   =        T    paw PP                                                                      
   EAUG   =  644.873                                                                                
   DEXC   =    0.000                                                                                
   RMAX   =    1.529    core radius for proj-oper                                                   
   RAUG   =    1.300    factor for augmentation sphere                                              
   RDEP   =    1.501    radius for radial grids                                                     
   RDEPT  =    1.300    core radius for aug-charge                                                  
                                                                                                    
   Atomic configuration                                                                             
    4 entries                                                                                       
     n  l   j            E        occ.                                                              
     1  0  0.50      -273.3789   2.0000                                                             
     2  0  0.50       -13.7508   2.0000                                                             
     2  1  0.50        -5.2854   2.0000                                                             
     3  2  1.50        -5.4423   0.0000                                                             
   Description                                                                                      
     l       E           TYP  RCUT    TYP  RCUT                                                     
     0    -13.7508458     23  1.200                                                                 
     0     -8.2022199     23  1.200                                                                 
     1     -5.2854383     23  1.500                                                                 
     1     34.0145650     23  1.500                                                                 
     2     -5.4423304      7  1.500                                                                 
  local pseudopotential read in
  partial core-charges read in
  partial kinetic energy density read in
  atomic valenz-charges read in
  non local Contribution for L=           0  read in
    real space projection operators read in
  non local Contribution for L=           0  read in
    real space projection operators read in
  non local Contribution for L=           1  read in
    real space projection operators read in
  non local Contribution for L=           1  read in
    real space projection operators read in
    PAW grid and wavefunctions read in
 
   number of l-projection  operators is LMAX  =           4
   number of lm-projection operators is LMMAX =           8
 
 POTCAR:    PAW_PBE Pr 23Dec2003                  
   SHA256 =  ebcd8a6c43bbf830c2eab3f7188f0d0e53e8e155a05b1bfc11640602897f077e Pr/POTCAR             
   COPYR  = (c) Copyright 23Dec2003 Georg Kresse                                                    
   COPYR  = This file is part of the software VASP. Any use, copying, and all other rights are regul
   COPYR  = If you do not have a valid VASP license, you may not use, copy or distribute this file. 
   VRHFIN =Pr : [core=Xe4]                                                                          
   LEXCH  = PE                                                                                      
   EATOM  =  1294.6665 eV,   95.1553 Ry                                                             
                                                                                                    
   TITEL  = PAW_PBE Pr 23Dec2003                                                                    
   LULTRA =        F    use ultrasoft PP ?                                                          
   IUNSCR =        1    unscreen: 0-lin 1-nonlin 2-no                                               
   RPACOR =    2.300    partial core radius                                                         
   POMASS =  141.000; ZVAL   =   13.000    mass and valenz                                          
   RCORE  =    2.700    outmost cutoff radius                                                       
   RWIGS  =    2.800; RWIGS  =    1.482    wigner-seitz radius (au A)                               
   ENMAX  =  272.941; ENMIN  =  204.706 eV                                                          
   RCLOC  =    1.903    cutoff for local pot                                                        
   LCOR   =        T    correct aug charges                                                         
   LPAW   =        T    paw PP                                                                      
   EAUG   =  578.020                                                                                
   DEXC   =    0.000                                                                                
   RMAX   =    2.755    core radius for proj-oper                                                   
   RAUG   =    1.300    factor for augmentation sphere                                              
   RDEP   =    2.816    radius for radial grids                                                     
   RDEPT  =    2.166    core radius for aug-charge                                                  
                                                                                                    
   Atomic configuration                                                                             
   14 entries                                                                                       
     n  l   j            E        occ.                                                              
     1  0  0.50    -41810.3934   2.0000                                                             
     2  0  0.50     -6731.1418   2.0000                                                             
     2  1  1.50     -6022.4876   6.0000                                                             
     3  0  0.50     -1458.2043   2.0000                                                             
     3  1  1.50     -1233.8862   6.0000                                                             
     3  2  2.50      -919.2566  10.0000                                                             
     4  0  0.50      -295.2681   2.0000                                                             
     4  1  1.50      -221.8430   6.0000                                                             
     4  2  2.50      -116.8418  10.0000                                                             
     5  0  0.50       -42.1589   2.0000                                                             
     6  0  0.50        -3.8068   2.0000                                                             
     5  1  1.50       -23.9655   6.0000                                                             
     5  2  2.50        -3.0008   1.0000                                                             
     4  3  2.50        -6.2311   2.0000                                                             
   Description                                                                                      
     l       E           TYP  RCUT    TYP  RCUT                                                     
     0    -42.1589404     23  1.550                                                                 
     0     -3.8068341     23  2.300                                                                 
     1    -23.9655292     23  2.400                                                                 
     1     27.2116520     23  2.400                                                                 
     2     -3.0008130     23  2.500                                                                 
     2     13.6058260     23  2.500                                                                 
     3     -6.2311419     23  2.700                                                                 
     3     -6.8029130     23  2.700                                                                 
  local pseudopotential read in
  partial core-charges read in
  partial kinetic energy density read in
  atomic valenz-charges read in
  non local Contribution for L=           0  read in
    real space projection operators read in
  non local Contribution for L=           0  read in
    real space projection operators read in
  non local Contribution for L=           1  read in
    real space projection operators read in
  non local Contribution for L=           1  read in
    real space projection operators read in
  non local Contribution for L=           2  read in
    real space projection operators read in
  non local Contribution for L=           2  read in
    real space projection operators read in
  non local Contribution for L=           3  read in
    real space projection operators read in
  non local Contribution for L=           3  read in
    real space projection operators read in
    PAW grid and wavefunctions read in
 
   number of l-projection  operators is LMAX  =           8
   number of lm-projection operators is LMMAX =          32
 
 -----------------------------------------------------------------------------
|                                                                             |
|               ----> ADVICE to this user running VASP <----                  |
|                                                                             |
|     You have a (more or less) 'large supercell' and for larger cells it     |
|     might be more efficient to use real-space projection operators.         |
|     Therefore, try LREAL= Auto in the INCAR file.                           |
|     Mind: For very accurate calculation, you might also keep the            |
|     reciprocal projection scheme (i.e. LREAL=.FALSE.).                      |
|                                                                             |
 -----------------------------------------------------------------------------

  PAW_PBE C 08Apr2002                   :
 energy of atom  1       EATOM= -147.1560
 kinetic energy error for atom=    0.0545 (will be added to EATOM!!)
  PAW_PBE Pr 23Dec2003                  :
 energy of atom  2       EATOM=-1294.6665
 kinetic energy error for atom=    0.0274 (will be added to EATOM!!)
 
 
 POSCAR: 3D\Atomistic
  positions in direct lattice
  velocities in cartesian coordinates
 exchange correlation table for  LEXCH =        8
   RHO(1)=    0.500       N(1)  =     2000
   RHO(2)=  100.500       N(2)  =     4000
 


--------------------------------------------------------------------------------------------------------


 ion  position               nearest neighbor table
   1  0.000  0.000  1.000-  72 1.53 194 1.53   6 1.54 160 1.54
   2  1.000  0.167  0.167-   7 1.53  21 1.53   6 1.54  24 1.54
   3  0.167  1.000  0.167-  55 1.53  56 1.53   5 1.53   6 1.54
   4  0.167  0.167  1.000-   8 1.53 144 1.53   6 1.54 146 1.54
   5  0.250  0.083  0.250-   3 1.53  10 1.54  76 1.54  81 1.54
   6  0.083  0.083  0.083-   4 1.54   2 1.54   1 1.54   3 1.54
   7  0.083  0.250  0.250-  27 1.53   2 1.53  97 1.54  76 1.54
   8  0.250  0.250  0.083-  27 1.53   4 1.53  33 1.54  10 1.54
   9  0.333  0.000  0.000-  14 1.53  56 1.54 202 1.54 144 1.54
  10  0.333  0.166  0.167-  14 1.53   5 1.54   8 1.54  15 1.54
  11  0.500  0.000  0.166-  14 1.53  13 1.53  64 1.53  63 1.55
  12  0.500  0.167  1.000- 152 1.53 154 1.53  14 1.53  16 1.53
  13  0.583  0.083  0.250-  89 1.53  11 1.53  84 1.54  18 1.54
  14  0.417  0.083  0.083-  11 1.53   9 1.53  10 1.53  12 1.53
  15  0.417  0.250  0.250- 105 1.53  35 1.53  84 1.54  10 1.54
  16  0.583  0.250  0.083-  35 1.53  41 1.53  18 1.53  12 1.53
  17  0.667  0.000  1.000- 152 1.53 210 1.54  22 1.54  64 1.54
  18  0.667  0.167  0.167-  16 1.53  23 1.54  22 1.54  13 1.54
  19  0.834  0.000  0.166-  72 1.53  21 1.53  22 1.53  71 1.54
  20  0.833  0.167  1.000-  22 1.53 162 1.54 160 1.54  24 1.54
  21  0.917  0.083  0.250-  19 1.53   2 1.53  73 1.54  92 1.54
  22  0.750  0.083  0.083-  19 1.53  20 1.53  17 1.54  18 1.54
  23  0.750  0.250  0.250-  43 1.53  18 1.54  92 1.54 111 1.54
  24  0.917  0.250  0.083-  20 1.54   2 1.54  25 1.54  43 1.54
  25  0.000  0.333  1.000-  30 1.53 184 1.53 146 1.54  24 1.54
  26  1.000  0.500  0.167-  48 1.53  31 1.53  45 1.54  30 1.54
  27  0.166  0.333  0.166-  30 1.53   7 1.53   8 1.53  29 1.54
  28  0.167  0.500  1.000- 170 1.53  32 1.54 168 1.54  30 1.54
  29  0.250  0.417  0.250- 105 1.53  34 1.53 100 1.53  27 1.54
  30  0.083  0.417  0.083-  27 1.53  25 1.53  26 1.54  28 1.54
  31  0.083  0.583  0.250- 100 1.53  51 1.53 119 1.53  26 1.53
  32  0.250  0.583  0.083-  34 1.53  51 1.53  57 1.53  28 1.54
  33  0.333  0.333  1.000- 154 1.53 168 1.54   8 1.54  38 1.54
  34  0.332  0.499  0.165-  32 1.53  38 1.53  29 1.53  39 1.57
  35  0.500  0.333  0.166-  16 1.53  15 1.53  38 1.53  37 1.55
  36  0.500  0.500  0.000- 176 1.54  38 1.54 178 1.54  40 1.54
  37  0.583  0.418  0.251- 108 1.50  42 1.53 111 1.54  35 1.55
  38  0.417  0.416  0.083-  34 1.53  35 1.53  36 1.54  33 1.54
  39  0.417  0.584  0.251- 108 1.50 127 1.50  59 1.54  34 1.57
  40  0.583  0.583  0.084-  59 1.53  42 1.53  36 1.54  65 1.54
  41  0.667  0.333  0.000-  16 1.53  46 1.54 162 1.54 176 1.54
  42  0.666  0.500  0.167-  40 1.53  47 1.53  37 1.53  46 1.54
  43  0.833  0.334  0.167-  45 1.53  46 1.53  23 1.53  24 1.54
  44  0.833  0.500  0.000-  48 1.53 186 1.54  46 1.54 184 1.54
  45  0.916  0.417  0.250-  43 1.53  97 1.54  26 1.54 114 1.54
  46  0.750  0.417  0.084-  43 1.53  41 1.54  44 1.54  42 1.54
  47  0.749  0.584  0.251- 132 1.49 114 1.53  42 1.53  67 1.55
  48  0.917  0.583  0.083-  67 1.53  26 1.53  44 1.53  49 1.53
  49  0.000  0.667  0.000- 208 1.53  54 1.53  48 1.53 170 1.53
  50  0.000  0.833  0.167-  54 1.53  69 1.53  55 1.54  72 1.54
  51  0.166  0.666  0.166-  54 1.53  32 1.53  31 1.53  53 1.55
  52  0.167  0.833  0.000-  54 1.53 192 1.54  56 1.54 194 1.54
  53  0.251  0.750  0.251- 127 1.49 122 1.53  58 1.53  51 1.55
  54  0.083  0.750  0.083-  51 1.53  50 1.53  52 1.53  49 1.53
  55  0.084  0.916  0.250-   3 1.53  73 1.54  50 1.54 122 1.54
  56  0.250  0.916  0.084-   3 1.53   9 1.54  52 1.54  58 1.54
  57  0.333  0.667  0.000- 192 1.53  32 1.53 178 1.54  62 1.54
  58  0.334  0.833  0.167-  62 1.53  53 1.53  63 1.53  56 1.54
  59  0.500  0.667  0.167-  40 1.53  62 1.53  61 1.54  39 1.54
  60  0.500  0.833  0.000-  64 1.54 202 1.54 200 1.54  62 1.54
  61  0.583  0.749  0.251- 129 1.50 132 1.50  59 1.54  66 1.57
  62  0.417  0.750  0.084-  59 1.53  58 1.53  60 1.54  57 1.54
  63  0.417  0.915  0.251- 129 1.50  58 1.53  81 1.54  11 1.55
  64  0.583  0.917  0.083-  66 1.53  11 1.53  60 1.54  17 1.54
  65  0.667  0.667  0.000-  70 1.53 186 1.53  40 1.54 200 1.54
  66  0.668  0.834  0.165-  70 1.53  64 1.53  71 1.53  61 1.57
  67  0.834  0.667  0.166-  48 1.53  70 1.53  69 1.53  47 1.55
  68  0.833  0.833  1.000- 208 1.53  70 1.54 210 1.54  72 1.54
  69  0.917  0.750  0.250- 135 1.53  67 1.53 119 1.53  50 1.53
  70  0.750  0.750  0.083-  66 1.53  67 1.53  65 1.53  68 1.54
  71  0.750  0.917  0.250-  89 1.53  66 1.53 135 1.53  19 1.54
  72  0.917  0.917  0.083-  19 1.53   1 1.53  50 1.54  68 1.54
  73  0.000  0.000  0.333-  78 1.53  55 1.54 139 1.54  21 1.54
  74  1.000  0.167  0.500-  93 1.53  96 1.53  78 1.53  79 1.53
  75  0.166  0.000  0.500-  78 1.53  77 1.53 125 1.53 126 1.55
  76  0.167  0.166  0.333-  78 1.53   5 1.54   7 1.54  80 1.54
  77  0.250  0.083  0.583- 148 1.53  75 1.53  82 1.54 143 1.54
  78  0.083  0.083  0.417-  75 1.53  73 1.53  76 1.53  74 1.53
  79  0.083  0.250  0.583-  99 1.53 164 1.53 143 1.53  74 1.53
  80  0.250  0.250  0.417- 105 1.53  99 1.53  82 1.54  76 1.54
  81  0.334  0.999  0.334-  86 1.53 126 1.53  63 1.54   5 1.54
  82  0.334  0.167  0.500-  77 1.54  80 1.54  86 1.54  87 1.54
  83  0.500  0.999  0.500-  85 1.53  86 1.53 131 1.54 130 1.54
  84  0.500  0.167  0.334-  13 1.54  15 1.54  86 1.54  88 1.54
  85  0.583  0.083  0.583- 156 1.53  83 1.53 151 1.54  90 1.54
  86  0.417  0.083  0.417-  81 1.53  83 1.53  84 1.54  82 1.54
  87  0.417  0.251  0.583- 172 1.53 107 1.53 151 1.54  82 1.54
  88  0.583  0.251  0.417- 111 1.53 107 1.53  84 1.54  90 1.54
  89  0.668  0.001  0.332-  71 1.53  94 1.53  13 1.53 131 1.58
  90  0.666  0.167  0.500-  95 1.54  94 1.54  85 1.54  88 1.54
  91  0.834  0.000  0.500-  93 1.53  94 1.53 139 1.53 138 1.55
  92  0.833  0.167  0.333-  96 1.53  23 1.54  21 1.54  94 1.54
  93  0.917  0.083  0.583-  91 1.53 140 1.53 159 1.53  74 1.53
  94  0.750  0.083  0.417-  89 1.53  91 1.53  90 1.54  92 1.54
  95  0.750  0.250  0.583- 180 1.53 113 1.53  90 1.54 159 1.54
  96  0.917  0.250  0.417- 113 1.53  97 1.53  92 1.53  74 1.53
  97  1.000  0.333  0.333-  96 1.53  45 1.54 102 1.54   7 1.54
  98  0.000  0.500  0.500- 102 1.53 115 1.53 118 1.54 103 1.54
  99  0.166  0.333  0.500-  79 1.53  80 1.53 102 1.53 101 1.55
 100  0.165  0.499  0.332-  31 1.53 102 1.53  29 1.53 104 1.57
 101  0.251  0.418  0.583- 106 1.50 167 1.53 172 1.53  99 1.55
 102  0.083  0.416  0.417- 100 1.53  99 1.53  98 1.53  97 1.54
 103  0.084  0.583  0.583- 121 1.53 167 1.53  98 1.54 188 1.54
 104  0.251  0.584  0.417- 106 1.50 127 1.50 121 1.54 100 1.57
 105  0.332  0.333  0.332-  29 1.53  80 1.53  15 1.53 110 1.58
 106  0.328  0.497  0.495- 104 1.50 101 1.50 110 1.50 212 2.57
 107  0.500  0.334  0.500-  87 1.53  88 1.53 109 1.54 110 1.54
 108  0.495  0.497  0.329-  39 1.50 110 1.50  37 1.50 212 2.56
 109  0.583  0.420  0.582- 175 1.50 112 1.50 107 1.54 180 1.58
 110  0.417  0.420  0.417- 108 1.50 106 1.50 107 1.54 105 1.58
 111  0.666  0.334  0.334-  88 1.53 116 1.54  37 1.54  23 1.54
 112  0.672  0.497  0.505- 117 1.50 116 1.50 109 1.50 212 2.57
 113  0.834  0.333  0.500-  96 1.53  95 1.53 115 1.53 116 1.55
 114  0.833  0.500  0.334- 118 1.53  47 1.53 116 1.53  45 1.54
 115  0.917  0.416  0.583- 183 1.53 113 1.53  98 1.53 164 1.54
 116  0.749  0.418  0.417- 112 1.50 114 1.53 111 1.54 113 1.55
 117  0.749  0.584  0.583- 112 1.50 204 1.50 134 1.54 183 1.57
 118  0.916  0.583  0.417- 134 1.53 114 1.53  98 1.54 119 1.54
 119  0.000  0.667  0.333-  31 1.53  69 1.53 118 1.54 124 1.54
 120  0.000  0.833  0.500- 125 1.53 139 1.53 136 1.54 124 1.54
 121  0.166  0.667  0.500- 103 1.53 124 1.53 123 1.54 104 1.54
 122  0.167  0.833  0.334- 124 1.53  53 1.53 126 1.53  55 1.54
 123  0.251  0.749  0.583- 128 1.50 196 1.50 121 1.54 191 1.57
 124  0.084  0.750  0.417- 121 1.53 122 1.53 120 1.54 119 1.54
 125  0.083  0.917  0.583- 191 1.53  75 1.53 120 1.53 140 1.54
 126  0.251  0.915  0.417- 128 1.50 122 1.53  81 1.53  75 1.55
 127  0.328  0.662  0.328-  53 1.49 104 1.50  39 1.50 212 2.58
 128  0.328  0.837  0.505- 123 1.50 126 1.50 130 1.50 212 2.57
 129  0.505  0.837  0.329-  61 1.50 131 1.50  63 1.50 212 2.56
 130  0.417  0.914  0.583- 199 1.50 128 1.50  83 1.54 148 1.58
 131  0.583  0.914  0.418- 129 1.50 133 1.50  83 1.54  89 1.58
 132  0.672  0.672  0.328-  47 1.49 137 1.50  61 1.50 212 2.59
 133  0.672  0.837  0.495- 137 1.50 138 1.50 131 1.50 212 2.57
 134  0.834  0.667  0.500- 136 1.53 118 1.53 117 1.54 137 1.54
 135  0.835  0.834  0.332-  69 1.53 139 1.53  71 1.53 137 1.57
 136  0.916  0.750  0.583- 134 1.53 207 1.53 120 1.54 188 1.54
 137  0.749  0.750  0.417- 133 1.50 132 1.50 134 1.54 135 1.57
 138  0.749  0.915  0.583- 133 1.50 207 1.53 156 1.53  91 1.55
 139  0.917  0.917  0.417- 135 1.53  91 1.53 120 1.53  73 1.54
 140  1.000  0.000  0.667-  93 1.53 211 1.54 125 1.54 145 1.54
 141  0.000  0.167  0.833- 145 1.53 163 1.53 160 1.54 146 1.54
 142  0.166  0.000  0.834- 194 1.53 145 1.53 144 1.53 195 1.54
 143  0.167  0.167  0.667-  79 1.53 147 1.54 145 1.54  77 1.54
 144  0.250  0.083  0.917- 142 1.53   4 1.53   9 1.54 149 1.54
 145  0.083  0.083  0.750- 142 1.53 141 1.53 140 1.54 143 1.54
 146  0.083  0.250  0.917-   4 1.54 141 1.54  25 1.54 166 1.54
 147  0.250  0.250  0.750- 166 1.53 149 1.54 143 1.54 172 1.54
 148  0.332  0.001  0.668- 195 1.53  77 1.53 153 1.53 130 1.58
 149  0.333  0.167  0.833- 154 1.53 147 1.54 144 1.54 153 1.54
 150  0.500  0.000  0.834- 152 1.53 153 1.53 202 1.53 203 1.55
 151  0.500  0.167  0.666- 155 1.54 153 1.54  85 1.54  87 1.54
 152  0.583  0.083  0.917- 150 1.53  17 1.53 157 1.53  12 1.53
 153  0.417  0.083  0.750- 148 1.53 150 1.53 151 1.54 149 1.54
 154  0.417  0.250  0.917- 174 1.53  33 1.53 149 1.53  12 1.53
 155  0.583  0.250  0.750- 180 1.53 174 1.53 151 1.54 157 1.54
 156  0.666  0.999  0.666-  85 1.53 138 1.53 203 1.54 161 1.54
 157  0.667  0.166  0.833- 152 1.53 161 1.54 162 1.54 155 1.54
 158  0.833  1.000  0.833- 211 1.53 210 1.53 161 1.53 160 1.54
 159  0.833  0.166  0.667-  93 1.53 161 1.54 163 1.54  95 1.54
 160  0.917  0.083  0.917-  20 1.54 141 1.54   1 1.54 158 1.54
 161  0.750  0.083  0.750- 158 1.53 157 1.54 159 1.54 156 1.54
 162  0.750  0.250  0.917- 182 1.53  20 1.54  41 1.54 157 1.54
 163  0.917  0.250  0.750- 182 1.53 141 1.53 164 1.54 159 1.54
 164  0.000  0.333  0.667-  79 1.53 169 1.54 115 1.54 163 1.54
 165  0.000  0.500  0.833- 170 1.53 187 1.53 169 1.54 184 1.54
 166  0.167  0.334  0.833- 169 1.53 168 1.53 147 1.53 146 1.54
 167  0.167  0.500  0.666- 103 1.53 171 1.53 101 1.53 169 1.54
 168  0.250  0.417  0.916- 166 1.53  33 1.54  28 1.54 173 1.54
 169  0.084  0.417  0.750- 166 1.53 164 1.54 165 1.54 167 1.54
 170  0.083  0.583  0.917- 190 1.53 165 1.53  28 1.53  49 1.53
 171  0.251  0.584  0.749- 196 1.49 167 1.53 173 1.53 190 1.55
 172  0.334  0.334  0.666-  87 1.53 101 1.53 177 1.54 147 1.54
 173  0.334  0.500  0.833- 178 1.53 171 1.53 177 1.53 168 1.54
 174  0.500  0.333  0.834- 154 1.53 155 1.53 176 1.53 177 1.55
 175  0.505  0.497  0.671- 179 1.50 109 1.50 177 1.50 212 2.57
 176  0.583  0.416  0.917- 181 1.53 174 1.53  36 1.54  41 1.54
 177  0.417  0.418  0.749- 175 1.50 173 1.53 172 1.54 174 1.55
 178  0.417  0.583  0.916- 198 1.53 173 1.53  36 1.54  57 1.54
 179  0.583  0.584  0.749- 175 1.50 204 1.50 198 1.54 181 1.57
 180  0.668  0.333  0.668- 185 1.53  95 1.53 155 1.53 109 1.58
 181  0.668  0.499  0.835- 186 1.53 176 1.53 185 1.53 179 1.57
 182  0.834  0.333  0.834- 184 1.53 163 1.53 162 1.53 185 1.54
 183  0.835  0.499  0.668- 187 1.53 115 1.53 185 1.53 117 1.57
 184  0.917  0.417  0.917- 182 1.53  25 1.53 165 1.54  44 1.54
 185  0.750  0.417  0.750- 180 1.53 181 1.53 183 1.53 182 1.54
 186  0.750  0.583  0.917- 181 1.53 206 1.53  65 1.53  44 1.54
 187  0.917  0.583  0.750- 183 1.53 206 1.53 188 1.53 165 1.53
 188  0.000  0.667  0.667- 193 1.53 187 1.53 136 1.54 103 1.54
 189  1.000  0.833  0.833- 208 1.53 193 1.54 211 1.54 194 1.54
 190  0.166  0.667  0.834- 170 1.53 192 1.53 193 1.53 171 1.55
 191  0.165  0.834  0.668- 193 1.53 125 1.53 195 1.53 123 1.57
 192  0.250  0.750  0.917- 197 1.53 190 1.53  57 1.53  52 1.54
 193  0.083  0.750  0.750- 191 1.53 190 1.53 188 1.53 189 1.54
 194  0.083  0.917  0.917- 142 1.53   1 1.53 189 1.54  52 1.54
 195  0.250  0.917  0.750- 148 1.53 197 1.53 191 1.53 142 1.54
 196  0.328  0.672  0.672- 171 1.49 123 1.50 201 1.50 212 2.58
 197  0.332  0.834  0.835- 192 1.53 202 1.53 195 1.53 201 1.57
 198  0.500  0.667  0.833- 200 1.53 178 1.53 179 1.54 201 1.54
 199  0.495  0.837  0.671- 201 1.50 130 1.50 203 1.50 212 2.57
 200  0.583  0.750  0.916- 198 1.53 205 1.53  60 1.54  65 1.54
 201  0.417  0.749  0.749- 199 1.50 196 1.50 198 1.54 197 1.57
 202  0.417  0.917  0.917- 197 1.53 150 1.53  60 1.54   9 1.54
 203  0.583  0.915  0.749- 199 1.50 205 1.53 156 1.54 150 1.55
 204  0.672  0.662  0.672- 209 1.49 117 1.50 179 1.50 212 2.59
 205  0.666  0.833  0.833- 200 1.53 209 1.53 203 1.53 210 1.54
 206  0.834  0.666  0.834- 208 1.53 186 1.53 187 1.53 209 1.55
 207  0.833  0.833  0.666- 136 1.53 209 1.53 138 1.53 211 1.54
 208  0.917  0.750  0.917- 206 1.53 189 1.53  68 1.53  49 1.53
 209  0.749  0.750  0.749- 204 1.49 207 1.53 205 1.53 206 1.55
 210  0.750  0.916  0.916- 158 1.53  17 1.54  68 1.54 205 1.54
 211  0.916  0.916  0.750- 158 1.53 140 1.54 189 1.54 207 1.54
 212  0.500  0.667  0.500- 129 2.56 108 2.56 199 2.57 175 2.57 128 2.57 106 2.57 133 2.57 112 2.57
                           127 2.58 196 2.58 132 2.59 204 2.59
 

IMPORTANT INFORMATION: All symmetrisations will be switched off!
NOSYMM: (Re-)initialisation of all symmetry stuff for point group C_1.


----------------------------------------------------------------------------------------

                                     Primitive cell                                     

  volume of cell :    1202.8529

  direct lattice vectors                    reciprocal lattice vectors
    10.635000229  0.000000000  0.000000000     0.094029147  0.000000000  0.000000000
     0.000000000 10.635000229  0.000000000     0.000000000  0.094029147  0.000000000
     0.000000000  0.000000000 10.635000229     0.000000000  0.000000000  0.094029147

  length of vectors
    10.635000229 10.635000229 10.635000229     0.094029147  0.094029147  0.094029147

  position of ions in fractional coordinates (direct lattice)
     0.000000051  0.000033195  0.999999698
     0.999999913  0.166665100  0.166635710
     0.166958272  0.999770870  0.166946324
     0.166636809  0.166665143  0.999999502
     0.250364609  0.082836209  0.250356190
     0.083441269  0.083242710  0.083437612
     0.083298515  0.249925692  0.250056330
     0.250055904  0.249935197  0.083300963
     0.333238637  0.000091904  0.000377866
     0.333254052  0.166396541  0.166744498
     0.500125989  0.000281139  0.166365696
     0.499999945  0.166663455  0.999998839
     0.583197499  0.083264225  0.250055384
     0.416716966  0.083394479  0.083386366
     0.416798852  0.250053806  0.250048381
     0.583281581  0.249933730  0.083386440
     0.666762458  0.000090505  0.999625238
     0.666746584  0.166928154  0.166747065
     0.833708768  0.000333760  0.166300383
     0.833363029  0.166665308  0.999999639
     0.916702031  0.083403299  0.250057121
     0.749943519  0.083393746  0.083301779
     0.749634980  0.250493064  0.250357756
     0.916558703  0.250088443  0.083437193
     0.000000096  0.333299786  0.999999641
     0.999578594  0.499894818  0.166529276
     0.166290575  0.332997026  0.166298879
     0.166570416  0.499899640  0.999604472
     0.249742205  0.416767750  0.249811661
     0.083257862  0.416722336  0.083250805
     0.082931483  0.583381630  0.249683011
     0.249734977  0.583412271  0.082995187
     0.333238054  0.333239013  0.999624399
     0.332075171  0.499069955  0.165117450
     0.499871894  0.333048457  0.166364578
     0.499999680  0.500060190  0.000002147
     0.582663061  0.418132906  0.251202335
     0.416664706  0.416490318  0.083110011
     0.416692895  0.583980936  0.251092304
     0.583210176  0.583398797  0.083606476
     0.666762657  0.333240478  0.000375211
     0.666212187  0.500467767  0.167238746
     0.833044012  0.333559689  0.166945114
     0.833431365  0.499899880  0.000397589
     0.916235716  0.416844796  0.250219750
     0.749745377  0.416871825  0.083778113
     0.749100663  0.583644754  0.250963775
     0.916729427  0.583299722  0.083244529
     0.000000953  0.666668201  0.000000656
     0.000427492  0.833439537  0.166529009
     0.166135134  0.666499641  0.166138917
     0.166570040  0.833434987  0.000399678
     0.250904992  0.749688340  0.250964731
     0.083272989  0.750036088  0.083244567
     0.083769459  0.916487400  0.250221277
     0.250255382  0.916461821  0.083779122
     0.333419272  0.666668282  0.000003597
     0.333786207  0.832868107  0.167238951
     0.499997207  0.666664845  0.166646293
     0.499999952  0.833276002  0.000004541
     0.583283672  0.749337096  0.251114352
     0.416789464  0.749938062  0.083608299
     0.417332275  0.915203720  0.251201166
     0.583332761  0.916838480  0.083115969
     0.666580200  0.666669149  0.000003917
     0.667924340  0.834259598  0.165126257
     0.833870748  0.666839460  0.166138236
     0.833429300  0.833436182  0.999604604
     0.917079817  0.749955857  0.249681615
     0.750263514  0.749922353  0.082997516
     0.750259739  0.916558484  0.249817242
     0.916742388  0.916610631  0.083251651
     0.000409000  0.000133384  0.333233769
     0.999999770  0.166663331  0.500000577
     0.166323948  0.000319229  0.500131652
     0.166744200  0.166393612  0.333253891
     0.250038676  0.083285030  0.583182176
     0.083388713  0.083420926  0.416702174
     0.083389249  0.249907234  0.583297806
     0.250031998  0.250034278  0.416816678
     0.333917764  0.999061896  0.333922529
     0.333643873  0.166661112  0.500000834
     0.500002671  0.998975412  0.500005191
     0.499999717  0.166661002  0.333639137
     0.583128079  0.082671527  0.583140231
     0.416873196  0.082669973  0.416862939
     0.416872299  0.250656775  0.583139172
     0.583127077  0.250655439  0.416861885
     0.667698434  0.000609056  0.332374213
     0.666355658  0.166664305  0.500001614
     0.833679001  0.000315810  0.499868371
     0.833255199  0.166931581  0.333254008
     0.916610362  0.083420706  0.583297170
     0.749965084  0.083286607  0.416821751
     0.749959298  0.250049331  0.583178233
     0.916612543  0.249908099  0.416702834
     0.999595715  0.333197670  0.333232781
     0.000005029  0.500007411  0.500000273
     0.166322485  0.333010220  0.499868338
     0.164908855  0.499017645  0.332086007
     0.251106262  0.418097666  0.582723460
     0.083026914  0.416422078  0.416651437
     0.083520890  0.583379491  0.583241571
     0.250654419  0.583832421  0.416665411
     0.332301065  0.332702342  0.332364429
     0.328400011  0.496743548  0.495069953
     0.499991857  0.334355360  0.499993886
     0.495097181  0.496793015  0.328755082
     0.582586862  0.419813783  0.582472491
     0.417351880  0.419736805  0.417473911
     0.666080942  0.334271938  0.333923342
     0.671615479  0.496781449  0.504902410
     0.833681055  0.333013771  0.500133003
     0.832852671  0.500437216  0.333759470
     0.916979484  0.416425576  0.583350302
     0.748899115  0.418098649  0.417273597
     0.749358321  0.583850967  0.583324848
     0.916491813  0.583378564  0.416758933
     0.000005907  0.666668054  0.333361932
     0.000006662  0.833328827  0.500001115
     0.166412225  0.666665335  0.499999336
     0.167158618  0.832897641  0.333761170
     0.250671661  0.749489146  0.583321364
     0.083521317  0.749957664  0.416759621
     0.083031105  0.916907847  0.583347948
     0.251104767  0.915239879  0.417273924
     0.328027919  0.661515040  0.328331254
     0.328408110  0.836589869  0.504909074
     0.504873004  0.836542727  0.328759935
     0.417381502  0.913562378  0.582505145
     0.582615919  0.913557542  0.417506106
     0.672005284  0.671826413  0.328335367
     0.671617531  0.836551600  0.495082573
     0.833609456  0.666673448  0.499999311
     0.835110197  0.834314572  0.332086617
     0.916491762  0.749959705  0.583242492
     0.749376206  0.749505777  0.416660874
     0.748894158  0.915228338  0.582725642
     0.916982425  0.916910769  0.416650859
     0.999596038  0.000131835  0.666767930
     0.000000150  0.166665350  0.833363745
     0.166292804  0.000333238  0.833699901
     0.166747528  0.166931294  0.666747096
     0.250057218  0.083393459  0.916698509
     0.083299636  0.083403261  0.749943321
     0.083441035  0.250088501  0.916561967
     0.250366957  0.250493653  0.749643554
     0.332311751  0.000609628  0.667635600
     0.333255191  0.166929015  0.833254197
     0.499872457  0.000275940  0.833634988
     0.500000596  0.166664461  0.666361804
     0.583280705  0.083394154  0.916611371
     0.416804165  0.083266509  0.749949079
     0.416718008  0.249934952  0.916612916
     0.583193776  0.250070887  0.749942487
     0.666078777  0.999053786  0.666076448
     0.666747015  0.166401498  0.833251489
     0.833042573  0.999771295  0.833054719
     0.833251943  0.166398485  0.666748342
     0.916558224  0.083243207  0.916561524
     0.749632219  0.082835275  0.749641431
     0.749943038  0.249937746  0.916696745
     0.916700139  0.249927862  0.749943245
     0.000407206  0.333198807  0.666767896
     0.000426157  0.499895783  0.833472405
     0.166958082  0.333560452  0.833055212
     0.167159425  0.500439043  0.666238791
     0.250254468  0.416870744  0.916224052
     0.083769115  0.416846438  0.749779885
     0.083273092  0.583299888  0.916757186
     0.250905778  0.583647253  0.749038797
     0.333919452  0.334273695  0.666077503
     0.333786308  0.500468816  0.832767740
     0.500126871  0.333053876  0.833636404
     0.504865072  0.496828991  0.671254633
     0.583334329  0.416496564  0.916889744
     0.417334517  0.418138165  0.748799552
     0.416789209  0.583398476  0.916399588
     0.583283977  0.584006674  0.748903193
     0.667690803  0.332738177  0.667628113
     0.667922961  0.499084119  0.834885656
     0.833707516  0.333000382  0.833699207
     0.835102725  0.499029554  0.667914139
     0.916741716  0.416724119  0.916748375
     0.750254597  0.416784046  0.750184985
     0.750264198  0.583415292  0.917009598
     0.917077390  0.583383613  0.750317935
     0.000006408  0.666669457  0.666639033
     0.999578394  0.833440566  0.833470066
     0.166135369  0.666838997  0.833865495
     0.164916540  0.834312395  0.667914030
     0.249734579  0.749924307  0.917012534
     0.082934217  0.749953121  0.750315990
     0.083259113  0.916610341  0.916748639
     0.249748798  0.916557710  0.750189620
     0.328030030  0.671825973  0.671694936
     0.332076908  0.834260547  0.834895651
     0.499996955  0.666673897  0.833367527
     0.495110414  0.836502609  0.671256219
     0.583210635  0.749939983  0.916400896
     0.416690314  0.749354374  0.748927700
     0.416664658  0.916841014  0.916895204
     0.582662910  0.915190213  0.748796245
     0.671997020  0.661519523  0.671684787
     0.666212869  0.832868352  0.832767624
     0.833870244  0.666497238  0.833865711
     0.832851046  0.832899143  0.666241044
     0.916729334  0.750036508  0.916756850
     0.749099895  0.749694624  0.749039886
     0.749744657  0.916461960  0.916223449
     0.916234530  0.916487749  0.749779484
     0.499797849  0.666688511  0.499853292

  ion indices of the primitive-cell ions
   primitive index   ion index
                 1           1
                 2           2
                 3           3
                 4           4
                 5           5
                 6           6
                 7           7
                 8           8
                 9           9
                10          10
                11          11
                12          12
                13          13
                14          14
                15          15
                16          16
                17          17
                18          18
                19          19
                20          20
                21          21
                22          22
                23          23
                24          24
                25          25
                26          26
                27          27
                28          28
                29          29
                30          30
                31          31
                32          32
                33          33
                34          34
                35          35
                36          36
                37          37
                38          38
                39          39
                40          40
                41          41
                42          42
                43          43
                44          44
                45          45
                46          46
                47          47
                48          48
                49          49
                50          50
                51          51
                52          52
                53          53
                54          54
                55          55
                56          56
                57          57
                58          58
                59          59
                60          60
                61          61
                62          62
                63          63
                64          64
                65          65
                66          66
                67          67
                68          68
                69          69
                70          70
                71          71
                72          72
                73          73
                74          74
                75          75
                76          76
                77          77
                78          78
                79          79
                80          80
                81          81
                82          82
                83          83
                84          84
                85          85
                86          86
                87          87
                88          88
                89          89
                90          90
                91          91
                92          92
                93          93
                94          94
                95          95
                96          96
                97          97
                98          98
                99          99
               100         100
               101         101
               102         102
               103         103
               104         104
               105         105
               106         106
               107         107
               108         108
               109         109
               110         110
               111         111
               112         112
               113         113
               114         114
               115         115
               116         116
               117         117
               118         118
               119         119
               120         120
               121         121
               122         122
               123         123
               124         124
               125         125
               126         126
               127         127
               128         128
               129         129
               130         130
               131         131
               132         132
               133         133
               134         134
               135         135
               136         136
               137         137
               138         138
               139         139
               140         140
               141         141
               142         142
               143         143
               144         144
               145         145
               146         146
               147         147
               148         148
               149         149
               150         150
               151         151
               152         152
               153         153
               154         154
               155         155
               156         156
               157         157
               158         158
               159         159
               160         160
               161         161
               162         162
               163         163
               164         164
               165         165
               166         166
               167         167
               168         168
               169         169
               170         170
               171         171
               172         172
               173         173
               174         174
               175         175
               176         176
               177         177
               178         178
               179         179
               180         180
               181         181
               182         182
               183         183
               184         184
               185         185
               186         186
               187         187
               188         188
               189         189
               190         190
               191         191
               192         192
               193         193
               194         194
               195         195
               196         196
               197         197
               198         198
               199         199
               200         200
               201         201
               202         202
               203         203
               204         204
               205         205
               206         206
               207         207
               208         208
               209         209
               210         210
               211         211
               212         212

----------------------------------------------------------------------------------------

 
 
 KPOINTS: 1 x 1 x 1 k-mesh (automatic generation o

Automatic generation of k-mesh.
 Grid dimensions read from file:
 generate k-points for:    1    1    1

 Generating k-lattice:

  Cartesian coordinates                     Fractional coordinates (reciprocal lattice)
     0.094029147  0.000000000  0.000000000     1.000000000  0.000000000  0.000000000
     0.000000000  0.094029147  0.000000000     0.000000000  1.000000000  0.000000000
     0.000000000  0.000000000  0.094029147     0.000000000  0.000000000  1.000000000

  Length of vectors
     0.094029147  0.094029147  0.094029147

  Shift w.r.t. Gamma in fractional coordinates (k-lattice)
     0.000000000  0.000000000  0.000000000

 
 Subroutine IBZKPT returns following result:
 ===========================================
 
 Found      1 irreducible k-points:
 
 Following reciprocal coordinates:
            Coordinates               Weight
  0.000000  0.000000  0.000000      1.000000
 
 Following cartesian coordinates:
            Coordinates               Weight
  0.000000  0.000000  0.000000      1.000000
 


--------------------------------------------------------------------------------------------------------




 Dimension of arrays:
   k-points           NKPTS =      1   k-points in BZ     NKDIM =      1   number of bands    NBANDS=    642
   number of dos      NEDOS =    301   number of ions     NIONS =    212
   non local maximal  LDIM  =      8   non local SUM 2l+1 LMDIM =     32
   total plane-waves  NPLWV = 343000
   max r-space proj   IRMAX =      1   max aug-charges    IRDMAX=  15313
   dimension x,y,z NGX =    70 NGY =   70 NGZ =   70
   dimension x,y,z NGXF=   140 NGYF=  140 NGZF=  140
   support grid    NGXF=   140 NGYF=  140 NGZF=  140
   ions per type =             211   1
   NGX,Y,Z   is equivalent  to a cutoff of  10.94, 10.94, 10.94 a.u.
   NGXF,Y,Z  is equivalent  to a cutoff of  21.88, 21.88, 21.88 a.u.

 SYSTEM =  unknown system                          
 POSCAR =  3D\Atomistic                            

 Startparameter for this run:
   NWRITE =      2    write-flag & timer
   PREC   = accura    normal or accurate (medium, high low for compatibility)
   ISTART =      1    job   : 0-new  1-cont  2-samecut
   ICHARG =      0    charge: 1-file 2-atom 10-const
   ISPIN  =      2    spin polarized calculation?
   LNONCOLLINEAR =      F non collinear calculations
   LSORBIT =      F    spin-orbit coupling
   INIWAV =      1    electr: 0-lowe 1-rand  2-diag
   LASPH  =      F    aspherical Exc in radial PAW
 Electronic Relaxation 1
   ENCUT  =  370.0 eV  27.19 Ry    5.21 a.u.  16.68 16.68 16.68*2*pi/ulx,y,z
   ENINI  =  370.0     initial cutoff
   ENAUG  =  740.0 eV  augmentation charge cutoff
   NELM   =     60;   NELMIN=  2; NELMDL=  0     # of ELM steps 
   EDIFF  = 0.1E-04   stopping-criterion for ELM
   LREAL  =      F    real-space projection
   NLSPLINE    = F    spline interpolate recip. space projectors
   LCOMPAT=      F    compatible to vasp.4.4
   GGA_COMPAT  = T    GGA compatible to vasp.4.4-vasp.4.6
   LMAXPAW     = -100 max onsite density
   LMAXMIX     =    2 max onsite mixed and CHGCAR
   VOSKOWN=      0    Vosko Wilk Nusair interpolation
   ROPT   =    0.00000   0.00000
 Ionic relaxation
   EDIFFG = -.1E-01   stopping-criterion for IOM
   NSW    =      0    number of steps for IOM
   NBLOCK =      1;   KBLOCK =      1    inner block; outer block 
   IBRION =     -1    ionic relax: 0-MD 1-quasi-New 2-CG
   NFREE  =      1    steps in history (QN), initial steepest desc. (CG)
   ISIF   =      1    stress and relaxation
   IWAVPR =     10    prediction:  0-non 1-charg 2-wave 3-comb
   ISYM   =      0    0-nonsym 1-usesym 2-fastsym
   LCORR  =      T    Harris-Foulkes like correction to forces

   POTIM  = 0.2000    time-step for ionic-motion
   TEIN   =    0.0    initial temperature
   TEBEG  =    0.0;   TEEND  =   0.0 temperature during run
   SMASS  =  -3.00    Nose mass-parameter (am)
   estimated Nose-frequenzy (Omega)   =  0.10E-29 period in steps = 0.31E+47 mass=  -0.258E-26a.u.
   SCALEE = 1.0000    scale energy and forces
   NPACO  =    256;   APACO  = 16.0  distance and # of slots for P.C.
   PSTRESS=    0.0 pullay stress

  Mass of Ions in am
   POMASS =  12.01141.00
  Ionic Valenz
   ZVAL   =   4.00 13.00
  Atomic Wigner-Seitz radii
   RWIGS  =  -1.00 -1.00
  virtual crystal weights 
   VCA    =   1.00  1.00
   NELECT =     857.0000    total number of electrons
   NUPDOWN=      -1.0000    fix difference up-down

 DOS related values:
   EMIN   =  10.00;   EMAX   =-10.00  energy-range for DOS
   EFERMI =   0.00
   ISMEAR =     0;   SIGMA  =   0.01  broadening in eV -4-tet -1-fermi 0-gaus

 Electronic relaxation 2 (details)
   IALGO  =     58    algorithm
   LDIAG  =      T    sub-space diagonalisation (order eigenvalues)
   LSUBROT=      F    optimize rotation matrix (better conditioning)
   TURBO    =      0    0=normal 1=particle mesh
   IRESTART =      0    0=no restart 2=restart with 2 vectors
   NREBOOT  =      0    no. of reboots
   NMIN     =      0    reboot dimension
   EREF     =   0.00    reference energy to select bands
   IMIX   =      4    mixing-type and parameters
     AMIX     =   0.40;   BMIX     =  1.00
     AMIX_MAG =   1.60;   BMIX_MAG =  1.00
     AMIN     =   0.10
     WC   =   100.;   INIMIX=   1;  MIXPRE=   1;  MAXMIX= -45

 Intra band minimization:
   WEIMIN = 0.0000     energy-eigenvalue tresh-hold
   EBREAK =  0.39E-08  absolut break condition
   DEPER  =   0.30     relativ break condition  

   TIME   =   0.40     timestep for ELM

  volume/ion in A,a.u.               =       5.67        38.29
  Fermi-wavevector in a.u.,A,eV,Ry     =   1.462169  2.763099 29.088419  2.137938
  Thomas-Fermi vector in A             =   2.578414
 
 Write flags
   LWAVE        =      T    write WAVECAR
   LDOWNSAMPLE  =      F    k-point downsampling of WAVECAR
   LCHARG       =      T    write CHGCAR
   LVTOT        =      F    write LOCPOT, total local potential
   LVHAR        =      F    write LOCPOT, Hartree potential only
   LELF         =      F    write electronic localiz. function (ELF)
   LORBIT       =      0    0 simple, 1 ext, 2 COOP (PROOUT), +10 PAW based schemes


 Dipole corrections
   LMONO  =      F    monopole corrections only (constant potential shift)
   LDIPOL =      F    correct potential (dipole corrections)
   IDIPOL =      0    1-x, 2-y, 3-z, 4-all directions 
   EPSILON=  1.0000000 bulk dielectric constant

 Exchange correlation treatment:
   GGA     =    PE    GGA type
   LEXCH   =     8    internal setting for exchange type
   VOSKOWN=      0    Vosko Wilk Nusair interpolation
   LHFCALC =     F    Hartree Fock is set to
   LHFONE  =     F    Hartree Fock one center treatment
   AEXX    =    0.0000 exact exchange contribution

 Linear response parameters
   LEPSILON=     F    determine dielectric tensor
   LRPA    =     F    only Hartree local field effects (RPA)
   LNABLA  =     F    use nabla operator in PAW spheres
   LVEL    =     F    velocity operator in full k-point grid
   LINTERFAST=   F  fast interpolation
   KINTER  =     0    interpolate to denser k-point grid
   CSHIFT  =0.1000    complex shift for real part using Kramers Kronig
   OMEGAMAX=  -1.0    maximum frequency
   DEG_THRESHOLD= 0.2000000E-02 threshold for treating states as degnerate
   RTIME   =   -0.100 relaxation time in fs
  (WPLASMAI=    0.000 imaginary part of plasma frequency in eV, 0.658/RTIME)
   DFIELD  = 0.0000000 0.0000000 0.0000000 field for delta impulse in time
 
 Orbital magnetization related:
   ORBITALMAG=     F  switch on orbital magnetization
   LCHIMAG   =     F  perturbation theory with respect to B field
   DQ        =  0.001000  dq finite difference perturbation B field
   LLRAUG    =     F  two centre corrections for induced B field



--------------------------------------------------------------------------------------------------------


 Static calculation
 charge density and potential will be updated during run
 spin polarized calculation
 Conjugate gradient for all bands (Freysoldt, et al. PRB 79, 241103 (2009))
 preconditioned conjugated gradient                                        
 perform sub-space diagonalisation
    before iterative eigenvector-optimisation
 modified Broyden-mixing scheme, WC =      100.0
 initial mixing is a Kerker type mixing with AMIX =  0.4000 and BMIX =      1.0000
 Hartree-type preconditioning will be used
 using additional bands          213
 reciprocal scheme for non local part
 use partial core corrections
 no Harris-corrections to forces 
 use gradient corrections 
 use of overlap-Matrix (Vanderbilt PP)
 Gauss-broadening in eV      SIGMA  =   0.01


--------------------------------------------------------------------------------------------------------


  energy-cutoff  :      370.00
  volume of cell :     1202.85
      direct lattice vectors                 reciprocal lattice vectors
    10.635000229  0.000000000  0.000000000     0.094029147  0.000000000  0.000000000
     0.000000000 10.635000229  0.000000000     0.000000000  0.094029147  0.000000000
     0.000000000  0.000000000 10.635000229     0.000000000  0.000000000  0.094029147

  length of vectors
    10.635000229 10.635000229 10.635000229     0.094029147  0.094029147  0.094029147


 
 old parameters found on file WAVECAR:
  energy-cutoff  :      370.00
  volume of cell :     1202.85
      direct lattice vectors                 reciprocal lattice vectors
    10.635000229  0.000000000  0.000000000     0.094029147  0.000000000  0.000000000
     0.000000000 10.635000229  0.000000000     0.000000000  0.094029147  0.000000000
     0.000000000  0.000000000 10.635000229     0.000000000  0.000000000  0.094029147

  length of vectors

 
 k-points in units of 2pi/SCALE and weight: 1 x 1 x 1 k-mesh (automatic generation o
   0.00000000  0.00000000  0.00000000       1.000
 
 k-points in reciprocal lattice and weights: 1 x 1 x 1 k-mesh (automatic generation o
   0.00000000  0.00000000  0.00000000       1.000
 
 position of ions in fractional coordinates (direct lattice) 
   0.00000005  0.00003319  0.99999970
   0.99999991  0.16666510  0.16663571
   0.16695827  0.99977087  0.16694632
   0.16663681  0.16666514  0.99999950
   0.25036461  0.08283621  0.25035619
   0.08344127  0.08324271  0.08343761
   0.08329851  0.24992569  0.25005633
   0.25005590  0.24993520  0.08330096
   0.33323864  0.00009190  0.00037787
   0.33325405  0.16639654  0.16674450
   0.50012599  0.00028114  0.16636570
   0.49999995  0.16666345  0.99999884
   0.58319750  0.08326422  0.25005538
   0.41671697  0.08339448  0.08338637
   0.41679885  0.25005381  0.25004838
   0.58328158  0.24993373  0.08338644
   0.66676246  0.00009051  0.99962524
   0.66674658  0.16692815  0.16674706
   0.83370877  0.00033376  0.16630038
   0.83336303  0.16666531  0.99999964
   0.91670203  0.08340330  0.25005712
   0.74994352  0.08339375  0.08330178
   0.74963498  0.25049306  0.25035776
   0.91655870  0.25008844  0.08343719
   0.00000010  0.33329979  0.99999964
   0.99957859  0.49989482  0.16652928
   0.16629058  0.33299703  0.16629888
   0.16657042  0.49989964  0.99960447
   0.24974221  0.41676775  0.24981166
   0.08325786  0.41672234  0.08325081
   0.08293148  0.58338163  0.24968301
   0.24973498  0.58341227  0.08299519
   0.33323805  0.33323901  0.99962440
   0.33207517  0.49906995  0.16511745
   0.49987189  0.33304846  0.16636458
   0.49999968  0.50006019  0.00000215
   0.58266306  0.41813291  0.25120233
   0.41666471  0.41649032  0.08311001
   0.41669289  0.58398094  0.25109230
   0.58321018  0.58339880  0.08360648
   0.66676266  0.33324048  0.00037521
   0.66621219  0.50046777  0.16723875
   0.83304401  0.33355969  0.16694511
   0.83343137  0.49989988  0.00039759
   0.91623572  0.41684480  0.25021975
   0.74974538  0.41687182  0.08377811
   0.74910066  0.58364475  0.25096377
   0.91672943  0.58329972  0.08324453
   0.00000095  0.66666820  0.00000066
   0.00042749  0.83343954  0.16652901
   0.16613513  0.66649964  0.16613892
   0.16657004  0.83343499  0.00039968
   0.25090499  0.74968834  0.25096473
   0.08327299  0.75003609  0.08324457
   0.08376946  0.91648740  0.25022128
   0.25025538  0.91646182  0.08377912
   0.33341927  0.66666828  0.00000360
   0.33378621  0.83286811  0.16723895
   0.49999721  0.66666485  0.16664629
   0.49999995  0.83327600  0.00000454
   0.58328367  0.74933710  0.25111435
   0.41678946  0.74993806  0.08360830
   0.41733228  0.91520372  0.25120117
   0.58333276  0.91683848  0.08311597
   0.66658020  0.66666915  0.00000392
   0.66792434  0.83425960  0.16512626
   0.83387075  0.66683946  0.16613824
   0.83342930  0.83343618  0.99960460
   0.91707982  0.74995586  0.24968162
   0.75026351  0.74992235  0.08299752
   0.75025974  0.91655848  0.24981724
   0.91674239  0.91661063  0.08325165
   0.00040900  0.00013338  0.33323377
   0.99999977  0.16666333  0.50000058
   0.16632395  0.00031923  0.50013165
   0.16674420  0.16639361  0.33325389
   0.25003868  0.08328503  0.58318218
   0.08338871  0.08342093  0.41670217
   0.08338925  0.24990723  0.58329781
   0.25003200  0.25003428  0.41681668
   0.33391776  0.99906190  0.33392253
   0.33364387  0.16666111  0.50000083
   0.50000267  0.99897541  0.50000519
   0.49999972  0.16666100  0.33363914
   0.58312808  0.08267153  0.58314023
   0.41687320  0.08266997  0.41686294
   0.41687230  0.25065678  0.58313917
   0.58312708  0.25065544  0.41686188
   0.66769843  0.00060906  0.33237421
   0.66635566  0.16666430  0.50000161
   0.83367900  0.00031581  0.49986837
   0.83325520  0.16693158  0.33325401
   0.91661036  0.08342071  0.58329717
   0.74996508  0.08328661  0.41682175
   0.74995930  0.25004933  0.58317823
   0.91661254  0.24990810  0.41670283
   0.99959572  0.33319767  0.33323278
   0.00000503  0.50000741  0.50000027
   0.16632249  0.33301022  0.49986834
   0.16490886  0.49901764  0.33208601
   0.25110626  0.41809767  0.58272346
   0.08302691  0.41642208  0.41665144
   0.08352089  0.58337949  0.58324157
   0.25065442  0.58383242  0.41666541
   0.33230107  0.33270234  0.33236443
   0.32840001  0.49674355  0.49506995
   0.49999186  0.33435536  0.49999389
   0.49509718  0.49679302  0.32875508
   0.58258686  0.41981378  0.58247249
   0.41735188  0.41973681  0.41747391
   0.66608094  0.33427194  0.33392334
   0.67161548  0.49678145  0.50490241
   0.83368106  0.33301377  0.50013300
   0.83285267  0.50043722  0.33375947
   0.91697948  0.41642558  0.58335030
   0.74889912  0.41809865  0.41727360
   0.74935832  0.58385097  0.58332485
   0.91649181  0.58337856  0.41675893
   0.00000591  0.66666805  0.33336193
   0.00000666  0.83332883  0.50000112
   0.16641222  0.66666534  0.49999934
   0.16715862  0.83289764  0.33376117
   0.25067166  0.74948915  0.58332136
   0.08352132  0.74995766  0.41675962
   0.08303111  0.91690785  0.58334795
   0.25110477  0.91523988  0.41727392
   0.32802792  0.66151504  0.32833125
   0.32840811  0.83658987  0.50490907
   0.50487300  0.83654273  0.32875994
   0.41738150  0.91356238  0.58250515
   0.58261592  0.91355754  0.41750611
   0.67200528  0.67182641  0.32833537
   0.67161753  0.83655160  0.49508257
   0.83360946  0.66667345  0.49999931
   0.83511020  0.83431457  0.33208662
   0.91649176  0.74995971  0.58324249
   0.74937621  0.74950578  0.41666087
   0.74889416  0.91522834  0.58272564
   0.91698243  0.91691077  0.41665086
   0.99959604  0.00013184  0.66676793
   0.00000015  0.16666535  0.83336375
   0.16629280  0.00033324  0.83369990
   0.16674753  0.16693129  0.66674710
   0.25005722  0.08339346  0.91669851
   0.08329964  0.08340326  0.74994332
   0.08344103  0.25008850  0.91656197
   0.25036696  0.25049365  0.74964355
   0.33231175  0.00060963  0.66763560
   0.33325519  0.16692901  0.83325420
   0.49987246  0.00027594  0.83363499
   0.50000060  0.16666446  0.66636180
   0.58328070  0.08339415  0.91661137
   0.41680416  0.08326651  0.74994908
   0.41671801  0.24993495  0.91661292
   0.58319378  0.25007089  0.74994249
   0.66607878  0.99905379  0.66607645
   0.66674702  0.16640150  0.83325149
   0.83304257  0.99977130  0.83305472
   0.83325194  0.16639849  0.66674834
   0.91655822  0.08324321  0.91656152
   0.74963222  0.08283527  0.74964143
   0.74994304  0.24993775  0.91669674
   0.91670014  0.24992786  0.74994324
   0.00040721  0.33319881  0.66676790
   0.00042616  0.49989578  0.83347241
   0.16695808  0.33356045  0.83305521
   0.16715943  0.50043904  0.66623879
   0.25025447  0.41687074  0.91622405
   0.08376912  0.41684644  0.74977989
   0.08327309  0.58329989  0.91675719
   0.25090578  0.58364725  0.74903880
   0.33391945  0.33427370  0.66607750
   0.33378631  0.50046882  0.83276774
   0.50012687  0.33305388  0.83363640
   0.50486507  0.49682899  0.67125463
   0.58333433  0.41649656  0.91688974
   0.41733452  0.41813817  0.74879955
   0.41678921  0.58339848  0.91639959
   0.58328398  0.58400667  0.74890319
   0.66769080  0.33273818  0.66762811
   0.66792296  0.49908412  0.83488566
   0.83370752  0.33300038  0.83369921
   0.83510272  0.49902955  0.66791414
   0.91674172  0.41672412  0.91674838
   0.75025460  0.41678405  0.75018498
   0.75026420  0.58341529  0.91700960
   0.91707739  0.58338361  0.75031794
   0.00000641  0.66666946  0.66663903
   0.99957839  0.83344057  0.83347007
   0.16613537  0.66683900  0.83386550
   0.16491654  0.83431239  0.66791403
   0.24973458  0.74992431  0.91701253
   0.08293422  0.74995312  0.75031599
   0.08325911  0.91661034  0.91674864
   0.24974880  0.91655771  0.75018962
   0.32803003  0.67182597  0.67169494
   0.33207691  0.83426055  0.83489565
   0.49999695  0.66667390  0.83336753
   0.49511041  0.83650261  0.67125622
   0.58321064  0.74993998  0.91640090
   0.41669031  0.74935437  0.74892770
   0.41666466  0.91684101  0.91689520
   0.58266291  0.91519021  0.74879624
   0.67199702  0.66151952  0.67168479
   0.66621287  0.83286835  0.83276762
   0.83387024  0.66649724  0.83386571
   0.83285105  0.83289914  0.66624104
   0.91672933  0.75003651  0.91675685
   0.74909990  0.74969462  0.74903989
   0.74974466  0.91646196  0.91622345
   0.91623453  0.91648775  0.74977948
   0.49979785  0.66668851  0.49985329
 
 position of ions in cartesian coordinates  (Angst):
   0.00000054  0.00035302 10.63499702
  10.63499930  1.77248338  1.77217082
   1.77560126 10.63256343  1.77547419
   1.77218251  1.77248384 10.63499493
   2.66262768  0.88096310  2.66253814
   0.88739792  0.88528624  0.88735903
   0.88587972  2.65795979  2.65934913
   2.65934459  2.65806088  0.88590576
   3.54399298  0.00097740  0.00401861
   3.54415692  1.76962725  1.77332777
   5.31884000  0.00298991  1.76929922
   5.31749953  1.77246588 10.63498788
   6.20230554  0.88551505  2.65933907
   4.43178503  0.88690031  0.88681402
   4.43265588  2.65932228  2.65926459
   6.20319975  2.65804527  0.88681481
   7.09101889  0.00096252 10.63101464
   7.09085007  1.77528096  1.77335507
   8.86649294  0.00354954  1.76860461
   8.86281601  1.77248558 10.63499639
   9.74912631  0.88699410  2.65935754
   7.97564950  0.88689251  0.88591443
   7.97236818  2.66399379  2.66255480
   9.74760202  2.65969064  0.88735456
   0.00000102  3.54464331 10.63499641
  10.63051858  5.31638151  1.77103889
   1.76850031  3.54142345  1.76858862
   1.77147641  5.31643279 10.63079379
   2.65600841  4.43232512  2.65674707
   0.88544738  4.43184214  0.88537233
   0.88197634  6.20426377  2.65537888
   2.65593154  6.20458963  0.88265383
   3.54398678  3.54399698 10.63100571
   3.53161952  5.30760908  1.75602412
   5.31613771  3.54197041  1.76928733
   5.31749672  5.31814023  0.00002283
   6.19662179  4.44684355  2.67153689
   4.43122924  4.42937463  0.88387499
   4.43152903  6.21063739  2.67036671
   6.20244035  6.20444634  0.88915489
   7.09102101  3.54401257  0.00399037
   7.08516676  5.32247482  1.77858410
   8.85942326  3.54740737  1.77546132
   8.86354276  5.31643534  0.00422835
   9.74416705  4.43314450  2.66108710
   7.97354226  4.43343195  0.89098025
   7.96668572  6.20706210  2.66899980
   9.74941767  6.20339268  0.88530559
   0.00001013  7.09001647  0.00000698
   0.00454637  8.86362966  1.77103605
   1.76684719  7.08822383  1.76688742
   1.77147241  8.86358128  0.00425058
   2.66837465  7.97293567  2.66900998
   0.88560826  7.97663397  0.88530599
   0.89088821  9.74684371  2.66110333
   2.66146604  9.74657167  0.89099098
   3.54591403  7.09001733  0.00003825
   3.54981639  8.85755251  1.77858628
   5.31747041  7.08998078  1.77228336
   5.31749960  8.86189047  0.00004829
   6.20322198  7.96920019  2.67060119
   4.43255604  7.97559146  0.88917428
   4.43832884  9.73319178  2.67152446
   6.20374405  9.75057745  0.88393835
   7.08908058  7.09002655  0.00004166
   7.10337551  8.87235101  1.75611778
   8.86821559  7.09183781  1.76688017
   8.86352080  8.86359399 10.63079519
   9.75314406  7.97578071  2.65536404
   7.97905265  7.97542440  0.88267860
   7.97901250  9.74759968  2.65680642
   9.74955551  9.74815427  0.88538133
   0.00434971  0.00141854  3.54394121
  10.63499778  1.77246456  5.31750625
   1.76885522  0.00339500  5.31890023
   1.77332460  1.76959610  3.54415520
   2.65916138  0.88573632  6.20214257
   0.88683898  0.88718156  4.43162771
   0.88684468  2.65776349  6.20337230
   2.65909036  2.65911460  4.43284547
   3.55121550 10.62502349  3.55126617
   3.54830266  1.77244097  5.31750899
   5.31752853 10.62410374  5.31755532
   5.31749710  1.77243980  3.54825229
   6.20156725  0.87921171  6.20169649
   4.43344653  0.87919518  4.43333745
   4.43343699  2.66573486  6.20168523
   6.20155659  2.66572065  4.43332624
   7.10097300  0.00647731  3.53479983
   7.08669258  1.77247492  5.31751728
   8.86617637  0.00335864  5.31610024
   8.86166924  1.77531741  3.54415645
   9.74815140  0.88717923  6.20336554
   7.97587884  0.88575308  4.43289942
   7.97581731  2.65927470  6.20210064
   9.74817460  2.65777269  4.43163474
  10.63070066  3.54355730  3.54393070
   0.00005348  5.31757893  5.31750301
   1.76883967  3.54156376  5.31609989
   1.75380572  5.30705277  3.53173476
   2.67051516  4.44646878  6.19726413
   0.88299125  4.42864889  4.43108812
   0.88824468  6.20424102  6.20277424
   2.66570981  6.20905793  4.43123675
   3.53402191  3.53828948  3.53469577
   3.49253419  5.28286774  5.26506907
   5.31741352  3.55586933  5.31743509
   5.26535864  5.28339383  3.49631038
   6.19581141  4.46471968  6.19459507
   4.43853734  4.46390102  4.43983513
   7.08377097  3.55498214  3.55127482
   7.14263078  5.28327082  5.36963725
   8.86619821  3.54160154  5.31891460
   8.85738835  5.32214991  3.54953204
   9.75207702  4.42868610  6.20393059
   7.96454226  4.44647922  4.43770480
   7.96942591  6.20925517  6.20365989
   9.74689064  6.20423116  4.43223135
   0.00006282  7.09001490  3.54530423
   0.00007085  8.86245226  5.31751198
   1.76979405  7.08998599  5.31749306
   1.77773194  8.85786660  3.54955012
   2.66589318  7.97081724  6.20362284
   0.88824923  7.97579993  4.43223866
   0.88303582  9.75131516  6.20390556
   2.67049926  9.73357632  4.43770828
   3.48857699  7.03521260  3.49180296
   3.49262032  8.89713344  5.36970812
   5.36932451  8.89663209  3.49636199
   4.43885237  9.71573610  6.19494235
   6.19612043  9.71568467  4.44017753
   7.14677635  7.14487405  3.49184671
   7.14265260  8.89672646  5.26520328
   8.86543675  7.09007227  5.31749278
   8.88139714  8.87293567  3.53174125
   9.74689010  7.97582163  6.20278404
   7.96961612  7.97099411  4.43118849
   7.96448954  9.73345359  6.19728733
   9.75210830  9.75134624  4.43108198
  10.63070410  0.00140207  7.09107709
   0.00000159  1.77248604  8.86282362
   1.76852401  0.00354398  8.86639863
   1.77336000  1.77531435  7.09085552
   2.65935857  0.88688945  9.74908886
   0.88589165  0.88699370  7.97564739
   0.88739543  2.65969126  9.74763673
   2.66265265  2.66400005  7.97245937
   3.53413555  0.00648339  7.10030476
   3.54416903  1.77529011  8.86165858
   5.31614370  0.00293463  8.86570829
   5.31750645  1.77247658  7.08675794
   6.20319043  0.88689684  9.74816214
   4.43271239  0.88553934  7.97570863
   4.43179611  2.65805827  9.74817857
   6.20226594  2.65950394  7.97563853
   7.08374795 10.62493724  7.08372317
   7.09085466  1.76967997  8.86162977
   8.85940796 10.63256796  8.85953712
   8.86163461  1.76964793  7.09086877
   9.74759692  0.88529153  9.74763202
   7.97233883  0.88095316  7.97243679
   7.97564438  2.65808799  9.74907009
   9.74910619  2.65798287  7.97564658
   0.00433064  3.54356939  7.09107673
   0.00453218  5.31639177  8.86397922
   1.77559924  3.54741548  8.85954237
   1.77774053  5.32216934  7.08544969
   2.66145633  4.43342046  9.74404300
   0.89088456  4.43316196  7.97390925
   0.88560935  6.20339445  9.74971289
   2.66838301  6.20708867  7.96602777
   3.55123345  3.55500083  7.08373440
   3.54981746  5.32248597  8.85648510
   5.31884939  3.54202805  8.86572335
   5.36924015  5.28377643  7.13879318
   6.20376073  4.42944105  9.75112263
   4.43835268  4.44689948  7.96348340
   4.43255333  6.20444293  9.74590982
   6.20322523  6.21091112  7.96458563
   7.10089185  3.53867059  7.10022513
   7.10336085  5.30775972  8.87900914
   8.86647962  3.54145914  8.86639126
   8.88131767  5.30717942  7.10326702
   9.74954836  4.43186111  9.74961918
   7.97895781  4.43249843  7.97821749
   7.97905992  6.20462176  9.75239728
   9.75311825  6.20428486  7.97963141
   0.00006815  7.09002983  7.08970627
  10.63051645  8.86364061  8.86395434
   1.76684968  7.09183288  8.86815973
   1.75388744  8.87291251  7.10326586
   2.65592731  7.97544517  9.75242851
   0.88200542  7.97575161  7.97961073
   0.88546069  9.74815118  9.74962199
   2.65607852  9.74759146  7.97826678
   3.48859944  7.14486937  7.14347580
   3.53163799  8.87236111  8.87911543
   5.31746773  7.09007705  8.86286384
   5.26549937  8.89620543  7.13881004
   6.20244524  7.97561189  9.74592374
   4.43150159  7.96938394  7.96484626
   4.43122873  9.75060439  9.75118071
   6.19662018  9.73304812  7.96344824
   7.14668847  7.03526028  7.14336787
   7.08517402  8.85755511  8.85648387
   8.86821024  7.08819827  8.86816203
   8.85737107  8.85788258  7.08547365
   9.74941667  7.97663843  9.74970931
   7.96667756  7.97300250  7.96603936
   7.97353460  9.74657316  9.74403659
   9.74415444  9.74684743  7.97390498
   5.31535024  7.09023247  5.31593987
 


--------------------------------------------------------------------------------------------------------


 use parallel FFT for orbitals z direction half grid
 k-point   1 :   0.0000 0.0000 0.0000  plane waves:    9775

 maximum and minimum number of plane-waves per node :      1225     1219

 maximum number of plane-waves:      9775
 maximum index in each direction: 
   IXMAX=   16   IYMAX=   16   IZMAX=   16
   IXMIN=  -16   IYMIN=  -16   IZMIN=    0


 parallel 3D FFT for wavefunctions:
    minimum data exchange during FFTs selected (reduces bandwidth)
 parallel 3D FFT for charge:
    minimum data exchange during FFTs selected (reduces bandwidth)


 total amount of memory used by VASP MPI-rank0    81676. kBytes
=======================================================================

   base      :      30000. kBytes
   nonl-proj :       4778. kBytes
   fftplans  :       4899. kBytes
   grid      :      13063. kBytes
   one-center:       1327. kBytes
   wavefun   :      27609. kBytes
 
     INWAV:  cpu time    0.3764: real time    0.3774
 Broyden mixing: mesh for mixing (old mesh)
   NGX = 33   NGY = 33   NGZ = 33
  (NGX  =140   NGY  =140   NGZ  =140)
  gives a total of  35937 points

 charge density for first step will be calculated from the start-wavefunctions


--------------------------------------------------------------------------------------------------------


 Maximum index for augmentation-charges          709 (set IRDMAX)


--------------------------------------------------------------------------------------------------------


 initial charge from wavefunction
 First call to EWALD:  gamma=   0.167
 Maximum number of real-space cells 3x 3x 3
 Maximum number of reciprocal cells 3x 3x 3

    FEWALD:  cpu time    0.0093: real time    0.0103


--------------------------------------- Iteration      1(   1)  ---------------------------------------


    POTLOK:  cpu time    0.1314: real time    0.1331
    SETDIJ:  cpu time    0.0496: real time    0.0497
    TRIAL :  cpu time    2.8589: real time    2.8663
    CORREC:  cpu time    0.7631: real time    0.7749
    CHARGE:  cpu time    0.1444: real time    0.1447
    --------------------------------------------
      LOOP:  cpu time    3.9577: real time    3.9792

 eigenvalue-minimisations  :     0
 total energy-change (2. order) :-0.1912065E+04  (-0.3936334E-06)
 number of electron     857.0000013 magnetization       1.0000001
 augmentation part       19.9890563 magnetization      -0.2569387

 Free energy of the ion-electron system (eV)
  ---------------------------------------------------
  alpha Z        PSCENC =      3227.87990073
  Ewald energy   TEWEN  =    -38019.61083107
  -Hartree energ DENC   =     -2992.14902877
  -exchange      EXHF   =         0.00000000
  -V(xc)+E(xc)   XCENC  =      3033.14928034
  PAW double counting   =     87192.70615701   -87347.38084419
  entropy T*S    EENTRO =        -0.00000000
  eigenvalues    EBANDS =       660.28625216
  atomic energy  EATOM  =     32333.05382947
  ---------------------------------------------------
  free energy    TOTEN  =     -1912.06528432 eV

  energy without entropy =    -1912.06528432  energy(sigma->0) =    -1912.06528432


--------------------------------------------------------------------------------------------------------




--------------------------------------- Iteration      1(   2)  ---------------------------------------


    POTLOK:  cpu time    0.1195: real time    0.1197
    SETDIJ:  cpu time    0.0477: real time    0.0478
    TRIAL :  cpu time    2.7492: real time    2.7612
    CORREC:  cpu time    0.7286: real time    0.7326
    EDDIAG:  cpu time    0.5186: real time    0.5199
    CHARGE:  cpu time    0.1378: real time    0.1381
    --------------------------------------------
      LOOP:  cpu time    4.3021: real time    4.3207

 eigenvalue-minimisations  :     0
 total energy-change (2. order) :-0.3742462E-06  (-0.2996742E-06)
 number of electron     857.0000013 magnetization       1.0000001
 augmentation part       19.9891412 magnetization      -0.2569531

 Free energy of the ion-electron system (eV)
  ---------------------------------------------------
  alpha Z        PSCENC =      3227.87990073
  Ewald energy   TEWEN  =    -38019.61083107
  -Hartree energ DENC   =     -2992.14950979
  -exchange      EXHF   =         0.00000000
  -V(xc)+E(xc)   XCENC  =      3033.14925913
  PAW double counting   =     87192.70479139   -87347.37894349
  entropy T*S    EENTRO =        -0.00000000
  eigenvalues    EBANDS =       660.28621892
  atomic energy  EATOM  =     32333.05382947
  ---------------------------------------------------
  free energy    TOTEN  =     -1912.06528469 eV

  energy without entropy =    -1912.06528469  energy(sigma->0) =    -1912.06528469


--------------------------------------------------------------------------------------------------------


  average scaling for gradient   1.0588


 average (electrostatic) potential at core
  the test charge radii are     0.6991  1.1535
  (the norm of the test charge is              1.0000)
       1 -45.4350       2 -45.4329       3 -45.3610       4 -45.4325       5 -45.3411
       6 -45.4145       7 -45.4070       8 -45.4067       9 -45.3850      10 -45.3943
      11 -45.3074      12 -45.3664      13 -45.3538      14 -45.3578      15 -45.3524
      16 -45.3581      17 -45.3859      18 -45.3952      19 -45.4608      20 -45.4330
      21 -45.4072      22 -45.4072      23 -45.3415      24 -45.4147      25 -45.4350
      26 -45.3873      27 -45.4602      28 -45.3894      29 -45.3837      30 -45.4093
      31 -45.3384      32 -45.3413      33 -45.3851      34 -45.4276      35 -45.3065
      36 -45.3321      37 -45.1652      38 -45.3406      39 -45.2236      40 -45.2782
      41 -45.3856      42 -45.2300      43 -45.3614      44 -45.3900      45 -45.3398
      46 -45.3405      47 -45.2006      48 -45.3618      49 -45.3754      50 -45.3870
      51 -45.3378      52 -45.3893      53 -45.1989      54 -45.3613      55 -45.3395
      56 -45.3401      57 -45.3361      58 -45.2298      59 -45.2563      60 -45.3321
      61 -45.2271      62 -45.2781      63 -45.1661      64 -45.3417      65 -45.3366
      66 -45.4299      67 -45.3393      68 -45.3901      69 -45.3386      70 -45.3424
      71 -45.3849      72 -45.4095      73 -45.3832      74 -45.3675      75 -45.3115
      76 -45.3948      77 -45.3532      78 -45.3578      79 -45.3581      80 -45.3523
      81 -45.2192      82 -45.3396      83 -45.2732      84 -45.3390      85 -45.2820
      86 -45.2819      87 -45.2818      88 -45.2818      89 -45.4932      90 -45.3400
      91 -45.3121      92 -45.3956      93 -45.3586      94 -45.3535      95 -45.3543
      96 -45.3583      97 -45.3835      98 -45.3304      99 -45.3110     100 -45.4139
     101 -45.1700     102 -45.3375     103 -45.2764     104 -45.2140     105 -45.4897
     106 -44.4189     107 -45.2730     108 -44.3888     109 -45.2670     110 -45.2613
     111 -45.2192     112 -44.4255     113 -45.3124     114 -45.2321     115 -45.3382
     116 -45.1713     117 -45.2157     118 -45.2765     119 -45.3339     120 -45.3304
     121 -45.2513     122 -45.2312     123 -45.2163     124 -45.2764     125 -45.3382
     126 -45.1705     127 -44.5799     128 -44.4216     129 -44.3935     130 -45.2640
     131 -45.2653     132 -44.5874     133 -44.4236     134 -45.2511     135 -45.4126
     136 -45.2767     137 -45.2138     138 -45.1714     139 -45.3377     140 -45.3840
     141 -45.4332     142 -45.4607     143 -45.3954     144 -45.4069     145 -45.4074
     146 -45.4147     147 -45.3414     148 -45.4922     149 -45.3949     150 -45.3073
     151 -45.3394     152 -45.3585     153 -45.3533     154 -45.3582     155 -45.3545
     156 -45.2196     157 -45.3958     158 -45.3618     159 -45.3963     160 -45.4148
     161 -45.3420     162 -45.4074     163 -45.4076     164 -45.3836     165 -45.3875
     166 -45.3613     167 -45.2315     168 -45.3403     169 -45.3398     170 -45.3617
     171 -45.2001     172 -45.2193     173 -45.2304     174 -45.3079     175 -44.3956
     176 -45.3417     177 -45.1666     178 -45.2782     179 -45.2268     180 -45.4954
     181 -45.4290     182 -45.4612     183 -45.4137     184 -45.4097     185 -45.3855
     186 -45.3425     187 -45.3393     188 -45.3342     189 -45.3878     190 -45.3389
     191 -45.4152     192 -45.3415     193 -45.3392     194 -45.4095     195 -45.3846
[...]
      0.00000      0.00035     10.63500         0.000040      0.004170      0.000102
     10.63500      1.77248      1.77217        -0.000078     -0.000020     -0.000310
      1.77560     10.63256      1.77547        -0.003762      0.005830     -0.004056
      1.77218      1.77248     10.63499         0.000442     -0.000112      0.000032
      2.66263      0.88096      2.66254        -0.001009     -0.002069     -0.001145
      0.88740      0.88529      0.88736        -0.002157      0.002905     -0.002125
      0.88588      2.65796      2.65935         0.002201      0.001044     -0.003063
      2.65934      2.65806      0.88591        -0.002433      0.001257      0.002219
      3.54399      0.00098      0.00402        -0.000575      0.002277     -0.003528
      3.54416      1.76963      1.77333        -0.000769      0.001935      0.000105
      5.31884      0.00299      1.76930        -0.001210     -0.001994      0.002472
      5.31750      1.77247     10.63499         0.000166      0.000411     -0.000000
      6.20231      0.88552      2.65934        -0.000052      0.000999      0.002468
      4.43179      0.88690      0.88681        -0.000554      0.001290     -0.001761
      4.43266      2.65932      2.65926         0.000594     -0.000363      0.002337
      6.20320      2.65805      0.88681         0.000782     -0.000838     -0.001629
      7.09102      0.00096     10.63101         0.000822      0.002426      0.003641
      7.09085      1.77528      1.77336         0.001026     -0.001197      0.000489
      8.86649      0.00355      1.76860        -0.004294     -0.000490      0.003698
      8.86282      1.77249     10.63500        -0.000510      0.000256     -0.000080
      9.74913      0.88699      2.65936        -0.002600     -0.000941     -0.003023
      7.97565      0.88689      0.88591         0.002627     -0.000992      0.002374
      7.97237      2.66399      2.66255         0.000887      0.002578     -0.000869
      9.74760      2.65969      0.88735         0.001853     -0.002953     -0.002105
      0.00000      3.54464     10.63500        -0.000284     -0.004324     -0.000087
     10.63052      5.31638      1.77104         0.002018     -0.003120     -0.000383
      1.76850      3.54142      1.76859         0.004362      0.000238      0.003595
      1.77148      5.31643     10.63079        -0.000352     -0.003268      0.001686
      2.65601      4.43233      2.65675         0.001747      0.000111      0.000705
      0.88545      4.43184      0.88537         0.001777     -0.005298      0.001599
      0.88198      6.20426      2.65538        -0.002472     -0.000819     -0.000542
      2.65593      6.20459      0.88265        -0.000711     -0.001171     -0.002703
      3.54399      3.54400     10.63101        -0.000602     -0.002257      0.003304
      3.53162      5.30761      1.75602        -0.001740     -0.003065     -0.001045
      5.31614      3.54197      1.76929         0.001736      0.002495      0.002858
      5.31750      5.31814      0.00002         0.000060      0.000965      0.000346
      6.19662      4.44684      2.67154        -0.000324      0.001311     -0.000073
      4.43123      4.42937      0.88387         0.000406      0.001463     -0.000927
      4.43153      6.21064      2.67037        -0.000691     -0.000202     -0.002287
      6.20244      6.20445      0.88915         0.000770     -0.000862      0.006581
      7.09102      3.54401      0.00399         0.000559     -0.001718     -0.003151
      7.08517      5.32247      1.77858        -0.000826      0.000101     -0.002828
      8.85942      3.54741      1.77546         0.002938     -0.005190     -0.003438
      8.86354      5.31644      0.00423        -0.000146     -0.003099     -0.001507
      9.74417      4.43314      2.66109        -0.000611     -0.002752     -0.001737
      7.97354      4.43343      0.89098         0.001721     -0.002753      0.001040
      7.96669      6.20706      2.66900         0.001867     -0.001239     -0.001160
      9.74942      6.20339      0.88531         0.002246     -0.000876     -0.001833
      0.00001      7.09002      0.00001        -0.000120     -0.000062      0.000075
      0.00455      8.86363      1.77104        -0.002611      0.002954     -0.000854
      1.76685      7.08822      1.76689         0.001542      0.000499      0.001356
      1.77147      8.86358      0.00425        -0.000573      0.003003     -0.001855
      2.66837      7.97294      2.66901        -0.002784      0.001364     -0.002761
      0.88561      7.97663      0.88531        -0.002529      0.000822     -0.001855
      0.89089      9.74684      2.66110         0.000019      0.002727     -0.002047
      2.66147      9.74657      0.89099        -0.002083      0.002915      0.000585
      3.54591      7.09002      0.00004         0.001617     -0.000430      0.000434
      3.54982      8.85755      1.77859         0.000728     -0.000666     -0.003770
      5.31747      7.08998      1.77228         0.000602     -0.001081     -0.007359
      5.31750      8.86189      0.00005         0.000290     -0.001606      0.000323
      6.20322      7.96920      2.67060         0.001583     -0.003220     -0.000788
      4.43256      7.97559      0.88917        -0.000383      0.000381      0.005633
      4.43833      9.73319      2.67152         0.000226      0.000050     -0.001777
      6.20374      9.75058      0.88394         0.000204     -0.001413     -0.001277
      7.08908      7.09003      0.00004        -0.001363     -0.000095      0.000270
      7.10338      8.87235      1.75612         0.002668      0.001648     -0.000264
      8.86822      7.09184      1.76688        -0.001722     -0.000967      0.001833
      8.86352      8.86359     10.63080         0.000630      0.003122      0.002091
      9.75314      7.97578      2.65536         0.001915      0.000483     -0.000162
      7.97905      7.97542      0.88268         0.000589      0.000573     -0.001850
      7.97901      9.74760      2.65681        -0.001099     -0.001120      0.001276
      9.74956      9.74815      0.88538        -0.001989      0.004996      0.001738
      0.00435      0.00142      3.54394        -0.004059      0.002252     -0.000963
     10.63500      1.77246      5.31751        -0.000262      0.000417     -0.000099
      1.76886      0.00339      5.31890         0.002348     -0.001745     -0.001560
      1.77332      1.76960      3.54416         0.000393      0.001695     -0.001260
      2.65916      0.88574      6.20214         0.001868      0.001391      0.000305
      0.88684      0.88718      4.43163        -0.002203      0.001015     -0.000558
      0.88684      2.65776      6.20337        -0.002262     -0.000725      0.000764
      2.65909      2.65911      4.43285         0.001873     -0.000990     -0.000088
      3.55122     10.62502      3.55127         0.001637      0.002130      0.001398
      3.54830      1.77244      5.31751         0.002139      0.000837     -0.000027
      5.31753     10.62410      5.31756         0.000377      0.003080      0.000245
      5.31750      1.77244      3.54825         0.000285      0.000743      0.001982
      6.20157      0.87921      6.20170        -0.000522     -0.007779     -0.000867
      4.43345      0.87920      4.43334         0.001239     -0.007509      0.001068
      4.43344      2.66573      6.20169         0.001064      0.008579     -0.001015
      6.20156      2.66572      4.43333        -0.000787      0.009467      0.001031
      7.10097      0.00648      3.53480         0.000753     -0.001995     -0.000232
      7.08669      1.77247      5.31752        -0.001898      0.000782     -0.000116
      8.86618      0.00336      5.31610        -0.002725     -0.002373      0.001254
      8.86167      1.77532      3.54416        -0.000850     -0.000948     -0.001244
      9.74815      0.88718      6.20337         0.001865      0.001133      0.000701
      7.97588      0.88575      4.43290        -0.001943      0.000938      0.000127
      7.97582      2.65927      6.20210        -0.002253      0.000412     -0.000374
      9.74817      2.65777      4.43163         0.001670     -0.000513     -0.000485
     10.63070      3.54356      3.54393         0.003354     -0.001999     -0.000887
      0.00005      5.31758      5.31750        -0.000199      0.001266      0.000022
      1.76884      3.54156      5.31610         0.002690      0.002163      0.001384
      1.75381      5.30705      3.53173         0.000279     -0.003290     -0.002871
      2.67052      4.44647      6.19726        -0.001476     -0.000191      0.000299
      0.88299      4.42865      4.43109        -0.001368      0.001072      0.000107
      0.88824      6.20424      6.20277         0.005526     -0.001071      0.000724
      2.66571      6.20906      4.43124         0.000058      0.001988     -0.000537
      3.53402      3.53829      3.53470         0.000295      0.001153     -0.000769
      3.49253      5.28287      5.26507         0.002409      0.002299     -0.002727
      5.31741      3.55587      5.31744         0.000457     -0.002337     -0.000785
      5.26536      5.28339      3.49631        -0.002313      0.003775     -0.000071
      6.19581      4.46472      6.19460         0.000392      0.004704     -0.001674
      4.43854      4.46390      4.43984        -0.000092      0.001511     -0.002197
      7.08377      3.55498      3.55127        -0.002026     -0.000821      0.001937
      7.14263      5.28327      5.36964        -0.000557      0.005633      0.000812
      8.86620      3.54160      5.31891        -0.003166      0.002838     -0.001535
      8.85739      5.32215      3.54953         0.002840      0.000181      0.000712
      9.75208      4.42869      6.20393         0.000481      0.001678     -0.000160
      7.96454      4.44648      4.43770         0.000256      0.001881      0.000680
      7.96943      6.20926      6.20366         0.000050      0.002277     -0.000157
      9.74689      6.20423      4.43223        -0.006599     -0.000820     -0.000542
      0.00006      7.09001      3.54530        -0.000135     -0.000205      0.001768
      0.00007      8.86245      5.31751        -0.000293     -0.001914     -0.000141
      1.76979      7.08999      5.31749        -0.007565     -0.000459     -0.000011
      1.77773      8.85787      3.54955        -0.003788     -0.000255      0.000151
      2.66589      7.97082      6.20362        -0.000079     -0.002980     -0.000017
      0.88825      7.97580      4.43224         0.005489      0.000455     -0.000630
      0.88304      9.75132      6.20391        -0.001378     -0.001121      0.000207
      2.67050      9.73358      4.43771        -0.001747     -0.000027     -0.000011
      3.48858      7.03521      3.49180         0.000993     -0.001259     -0.002289
      3.49262      8.89713      5.36971         0.001702     -0.002472      0.002281
      5.36932      8.89663      3.49636         0.003584     -0.003944     -0.000381
      4.43885      9.71574      6.19494        -0.000201     -0.002042      0.001664
      6.19612      9.71568      4.44018         0.000958     -0.004313      0.000618
      7.14678      7.14487      3.49185         0.001283     -0.000924     -0.000561
      7.14265      8.89673      5.26520         0.000358     -0.005643     -0.002652
      8.86544      7.09007      5.31749         0.006610     -0.000659     -0.000506
      8.88140      8.87294      3.53174         0.000080      0.001743     -0.002537
      9.74689      7.97582      6.20278        -0.005883      0.000619      0.000717
      7.96962      7.97099      4.43119         0.000492     -0.002991     -0.000481
      7.96449      9.73345      6.19729         0.001575     -0.001002     -0.000285
      9.75211      9.75135      4.43108         0.001213     -0.001392     -0.000073
     10.63070      0.00140      7.09108         0.003652      0.002363      0.000965
      0.00000      1.77249      8.86282        -0.000204      0.000160      0.000419
      1.76852      0.00354      8.86640         0.004377     -0.000445     -0.003427
      1.77336      1.77531      7.09086         0.000547     -0.000876      0.001276
      2.65936      0.88689      9.74909        -0.002677     -0.000774     -0.002201
      0.88589      0.88699      7.97565         0.002278     -0.000786      0.003220
      0.88740      2.65969      9.74764        -0.002110     -0.002872      0.002024
      2.66265      2.66400      7.97246        -0.000964      0.002502      0.001153
      3.53414      0.00648      7.10030         0.000109     -0.000869      0.000873
      3.54417      1.77529      8.86166        -0.000753     -0.001337     -0.000360
      5.31614      0.00293      8.86571         0.001693     -0.002036     -0.002487
      5.31751      1.77248      7.08676         0.000202      0.000865     -0.002182
      6.20319      0.88690      9.74816         0.000875      0.001184      0.001715
      4.43271      0.88554      7.97571         0.000288      0.001122     -0.002079
      4.43180      2.65806      9.74818        -0.000614     -0.000693      0.001712
      6.20227      2.65950      7.97564        -0.000246     -0.000005     -0.002514
      7.08375     10.62494      7.08372        -0.001727      0.001424     -0.001899
      7.09085      1.76968      8.86163         0.000850      0.002210     -0.000554
      8.85941     10.63257      8.85954         0.003532      0.005954      0.003822
      8.86163      1.76965      7.09087        -0.000814      0.001766      0.001134
      9.74760      0.88529      9.74763         0.001888      0.002898      0.002118
      7.97234      0.88095      7.97244         0.000948     -0.002197      0.000995
      7.97564      2.65809      9.74907         0.002600      0.001262     -0.002337
      9.74911      2.65798      7.97565        -0.002666      0.001406      0.002932
      0.00433      3.54357      7.09108        -0.003672     -0.001887      0.000784
      0.00453      5.31639      8.86398        -0.002437     -0.003006      0.000258
      1.77560      3.54742      8.85954        -0.003463     -0.005556      0.003612
      1.77774      5.32217      7.08545        -0.003650     -0.000424     -0.000400
      2.66146      4.43342      9.74404        -0.001612     -0.002707     -0.000811
      0.89088      4.43316      7.97391         0.000340     -0.002715      0.001787
      0.88561      6.20339      9.74971        -0.002454     -0.000961      0.001947
      2.66838      6.20709      7.96603        -0.002571     -0.002137      0.003055
      3.55123      3.55500      7.08373         0.001983     -0.001674     -0.002008
      3.54982      5.32249      8.85649         0.000481     -0.000212      0.003823
      5.31885      3.54203      8.86572        -0.001292      0.002420     -0.002800
      5.36924      5.28378      7.13879         0.002823      0.004003     -0.000726
      6.20376      4.42944      9.75112        -0.000053      0.001526      0.001263
      4.43835      4.44690      7.96348        -0.000166      0.000284      0.001587
      4.43255      6.20444      9.74591        -0.000296     -0.000649     -0.005450
      6.20323      6.21091      7.96459         0.001599      0.002594      0.001643
      7.10089      3.53867      7.10023         0.000115      0.002776     -0.000453
      7.10336      5.30776      8.87901         0.002398     -0.002239      0.000518
      8.86648      3.54146      8.86639        -0.004634      0.000641     -0.003830
      8.88132      5.30718      7.10327        -0.000137     -0.002176      0.001901
      9.74955      4.43186      9.74962        -0.001979     -0.005245     -0.001797
      7.97896      4.43250      7.97822        -0.001534      0.001194     -0.001553
      7.97906      6.20462      9.75240         0.000723     -0.000833      0.002417
      9.75312      6.20428      7.97963         0.002082     -0.000859      0.000417
      0.00007      7.09003      7.08971        -0.000291     -0.000314     -0.001960
     10.63052      8.86364      8.86395         0.002569      0.002950      0.000788
      1.76685      7.09183      8.86816         0.001394     -0.001145     -0.001193
      1.75389      8.87291      7.10327         0.000206      0.002526      0.002927
      2.65593      7.97545      9.75243        -0.000758      0.000927      0.002873
      0.88201      7.97575      7.97961        -0.002320      0.000676      0.000684
      0.88546      9.74815      9.74962         0.001583      0.005233     -0.001464
      2.65608      9.74759      7.97827         0.001352     -0.000287     -0.000191
      3.48860      7.14487      7.14348         0.000920     -0.000318      0.001885
      3.53164      8.87236      8.87912        -0.002145      0.002445      0.001505
      5.31747      7.09008      8.86286         0.000130     -0.000024      0.008011
      5.26550      8.89621      7.13881        -0.002866     -0.004097      0.000500
      6.20245      7.97561      9.74592         0.000735      0.000291     -0.005643
      4.43150      7.96938      7.96485        -0.000700     -0.000922      0.003597
      4.43123      9.75060      9.75118         0.000147     -0.001297      0.001633
      6.19662      9.73305      7.96345         0.000137     -0.001010      0.001354
      7.14669      7.03526      7.14337         0.001643     -0.000978      0.000473
      7.08517      8.85756      8.85648        -0.000526     -0.000524      0.003431
      8.86821      7.08820      8.86816        -0.001583      0.000391     -0.001693
      8.85737      8.85788      7.08547         0.003310     -0.000785     -0.000908
      9.74942      7.97664      9.74971         0.002178      0.000910      0.001947
      7.96668      7.97300      7.96604         0.002504      0.001346      0.002290
      7.97353      9.74657      9.74404         0.001971      0.002628     -0.000644
      9.74415      9.74685      7.97390        -0.000320      0.002773      0.002191
      5.31535      7.09023      5.31594        -0.005470     -0.004132     -0.003736
 -----------------------------------------------------------------------------------
    total drift:                                0.000692      0.002079      0.000289


--------------------------------------------------------------------------------------------------------



  FREE ENERGIE OF THE ION-ELECTRON SYSTEM (eV)
  ---------------------------------------------------
  free  energy   TOTEN  =     -1912.06528469 eV

  energy  without entropy=    -1912.06528469  energy(sigma->0) =    -1912.06528469
 


--------------------------------------------------------------------------------------------------------


    POTLOK:  cpu time    0.1662: real time    0.1673


--------------------------------------------------------------------------------------------------------


 writing wavefunctions
     LOOP+:  cpu time   19.8716: real time   20.1043
    4ORBIT:  cpu time    0.0000: real time    0.0000

 total amount of memory used by VASP MPI-rank0    81676. kBytes
=======================================================================

   base      :      30000. kBytes
   nonl-proj :       4778. kBytes
   fftplans  :       4899. kBytes
   grid      :      13063. kBytes
   one-center:       1327. kBytes
   wavefun   :      27609. kBytes
 
  
  
 General timing and accounting informations for this job:
 ========================================================
  
                  Total CPU time used (sec):       31.130
                            User time (sec):       23.615
                          System time (sec):        7.515
                         Elapsed time (sec):       31.623
  
                   Maximum memory used (kb):      344824.
                   Average memory used (kb):          N/A
  
                          Minor page faults:       145542
                          Major page faults:            0
                 Voluntary context switches:         2226
