 vasp.6.2.1 16May21 (build Sep 27 2021 21:11:04) gamma-only                     
  
 executed on             LinuxIFC date 2023.05.04  06:17:01
 running   24 mpi-ranks, with    1 threads/rank
 distrk:  each k-point on   24 cores,    1 groups
 distr:  one band on NCORE=   8 cores,    3 groups


--------------------------------------------------------------------------------------------------------


 INCAR:
   GGA = PE
   ISTART = 1
   ISPIN = 2
   ENCUT = 370
   ENAUG = 740
   EDIFF = 1E-5
   IBRION = 2
   POTIM = 0.2
   ALGO = All
   NSW = 0
   EDIFFG = -1E-2
   ISMEAR = 0
   SIGMA = 0.01
   ISIF = 1
   LREAL = .FALSE.
   ISYM = 0
   PREC = Accurate
   LHFCALC = .TRUE.
   HFSCREEN = 0.2
   NCORE = 8
   NELM = 60
   NWRITE = 2
   SYMPREC = 1.0e-8

 POTCAR:    PAW_PBE C 08Apr2002                   
 POTCAR:    PAW_PBE Pr 23Dec2003                  
 -----------------------------------------------------------------------------
|                                                                             |
|           W    W    AA    RRRRR   N    N  II  N    N   GGGG   !!!           |
|           W    W   A  A   R    R  NN   N  II  NN   N  G    G  !!!           |
|           W    W  A    A  R    R  N N  N  II  N N  N  G       !!!           |
|           W WW W  AAAAAA  RRRRR   N  N N  II  N  N N  G  GGG   !            |
|           WW  WW  A    A  R   R   N   NN  II  N   NN  G    G                |
|           W    W  A    A  R    R  N    N  II  N    N   GGGG   !!!           |
|                                                                             |
|     You use a magnetic or noncollinear calculation, but did not specify     |
|     the initial magnetic moment with the MAGMOM tag. Note that a            |
|     default of 1 will be used for all atoms. This ferromagnetic setup       |
|     may break the symmetry of the crystal, in particular it may rule        |
|     out finding an antiferromagnetic solution. Thence, we recommend         |
|     setting the initial magnetic moment manually or verifying carefully     |
|     that this magnetic setup is desired.                                    |
|                                                                             |
 -----------------------------------------------------------------------------

 POTCAR:    PAW_PBE C 08Apr2002                   
   SHA256 =  253f7b50bb8d59471dbedb8285d89021f4a42ed1a2c5d38a03a736e69125dd95 C/POTCAR              
   COPYR  = (c) Copyright 08Apr2002 Georg Kresse                                                    
   COPYR  = This file is part of the software VASP. Any use, copying, and all other rights are regul
   COPYR  = If you do not have a valid VASP license, you may not use, copy or distribute this file. 
   VRHFIN =C: s2p2                                                                                  
   LEXCH  = PE                                                                                      
   EATOM  =   147.1560 eV,   10.8157 Ry                                                             
                                                                                                    
   TITEL  = PAW_PBE C 08Apr2002                                                                     
   LULTRA =        F    use ultrasoft PP ?                                                          
   IUNSCR =        1    unscreen: 0-lin 1-nonlin 2-no                                               
   RPACOR =    1.200    partial core radius                                                         
   POMASS =   12.011; ZVAL   =    4.000    mass and valenz                                          
   RCORE  =    1.500    outmost cutoff radius                                                       
   RWIGS  =    1.630; RWIGS  =    0.863    wigner-seitz radius (au A)                               
   ENMAX  =  400.000; ENMIN  =  300.000 eV                                                          
   ICORE  =        2    local potential                                                             
   LCOR   =        T    correct aug charges                                                         
   LPAW   =        T    paw PP                                                                      
   EAUG   =  644.873                                                                                
   DEXC   =    0.000                                                                                
   RMAX   =    1.529    core radius for proj-oper                                                   
   RAUG   =    1.300    factor for augmentation sphere                                              
   RDEP   =    1.501    radius for radial grids                                                     
   RDEPT  =    1.300    core radius for aug-charge                                                  
                                                                                                    
   Atomic configuration                                                                             
    4 entries                                                                                       
     n  l   j            E        occ.                                                              
     1  0  0.50      -273.3789   2.0000                                                             
     2  0  0.50       -13.7508   2.0000                                                             
     2  1  0.50        -5.2854   2.0000                                                             
     3  2  1.50        -5.4423   0.0000                                                             
   Description                                                                                      
     l       E           TYP  RCUT    TYP  RCUT                                                     
     0    -13.7508458     23  1.200                                                                 
     0     -8.2022199     23  1.200                                                                 
     1     -5.2854383     23  1.500                                                                 
     1     34.0145650     23  1.500                                                                 
     2     -5.4423304      7  1.500                                                                 
  local pseudopotential read in
  partial core-charges read in
  partial kinetic energy density read in
  atomic valenz-charges read in
  non local Contribution for L=           0  read in
    real space projection operators read in
  non local Contribution for L=           0  read in
    real space projection operators read in
  non local Contribution for L=           1  read in
    real space projection operators read in
  non local Contribution for L=           1  read in
    real space projection operators read in
    PAW grid and wavefunctions read in
 
   number of l-projection  operators is LMAX  =           4
   number of lm-projection operators is LMMAX =           8
 
 POTCAR:    PAW_PBE Pr 23Dec2003                  
   SHA256 =  ebcd8a6c43bbf830c2eab3f7188f0d0e53e8e155a05b1bfc11640602897f077e Pr/POTCAR             
   COPYR  = (c) Copyright 23Dec2003 Georg Kresse                                                    
   COPYR  = This file is part of the software VASP. Any use, copying, and all other rights are regul
   COPYR  = If you do not have a valid VASP license, you may not use, copy or distribute this file. 
   VRHFIN =Pr : [core=Xe4]                                                                          
   LEXCH  = PE                                                                                      
   EATOM  =  1294.6665 eV,   95.1553 Ry                                                             
                                                                                                    
   TITEL  = PAW_PBE Pr 23Dec2003                                                                    
   LULTRA =        F    use ultrasoft PP ?                                                          
   IUNSCR =        1    unscreen: 0-lin 1-nonlin 2-no                                               
   RPACOR =    2.300    partial core radius                                                         
   POMASS =  140.907; ZVAL   =   13.000    mass and valenz                                          
   RCORE  =    2.700    outmost cutoff radius                                                       
   RWIGS  =    2.800; RWIGS  =    1.482    wigner-seitz radius (au A)                               
   ENMAX  =  272.941; ENMIN  =  204.706 eV                                                          
   RCLOC  =    1.903    cutoff for local pot                                                        
   LCOR   =        T    correct aug charges                                                         
   LPAW   =        T    paw PP                                                                      
   EAUG   =  578.020                                                                                
   DEXC   =    0.000                                                                                
   RMAX   =    2.755    core radius for proj-oper                                                   
   RAUG   =    1.300    factor for augmentation sphere                                              
   RDEP   =    2.816    radius for radial grids                                                     
   RDEPT  =    2.166    core radius for aug-charge                                                  
                                                                                                    
   Atomic configuration                                                                             
   14 entries                                                                                       
     n  l   j            E        occ.                                                              
     1  0  0.50    -41810.3934   2.0000                                                             
     2  0  0.50     -6731.1418   2.0000                                                             
     2  1  1.50     -6022.4876   6.0000                                                             
     3  0  0.50     -1458.2043   2.0000                                                             
     3  1  1.50     -1233.8862   6.0000                                                             
     3  2  2.50      -919.2566  10.0000                                                             
     4  0  0.50      -295.2681   2.0000                                                             
     4  1  1.50      -221.8430   6.0000                                                             
     4  2  2.50      -116.8418  10.0000                                                             
     5  0  0.50       -42.1589   2.0000                                                             
     6  0  0.50        -3.8068   2.0000                                                             
     5  1  1.50       -23.9655   6.0000                                                             
     5  2  2.50        -3.0008   1.0000                                                             
     4  3  2.50        -6.2311   2.0000                                                             
   Description                                                                                      
     l       E           TYP  RCUT    TYP  RCUT                                                     
     0    -42.1589404     23  1.550                                                                 
     0     -3.8068341     23  2.300                                                                 
     1    -23.9655292     23  2.400                                                                 
     1     27.2116520     23  2.400                                                                 
     2     -3.0008130     23  2.500                                                                 
     2     13.6058260     23  2.500                                                                 
     3     -6.2311419     23  2.700                                                                 
     3     -6.8029130     23  2.700                                                                 
  local pseudopotential read in
  partial core-charges read in
  partial kinetic energy density read in
  atomic valenz-charges read in
  non local Contribution for L=           0  read in
    real space projection operators read in
  non local Contribution for L=           0  read in
    real space projection operators read in
  non local Contribution for L=           1  read in
    real space projection operators read in
  non local Contribution for L=           1  read in
    real space projection operators read in
  non local Contribution for L=           2  read in
    real space projection operators read in
  non local Contribution for L=           2  read in
    real space projection operators read in
  non local Contribution for L=           3  read in
    real space projection operators read in
  non local Contribution for L=           3  read in
    real space projection operators read in
    PAW grid and wavefunctions read in
 
   number of l-projection  operators is LMAX  =           8
   number of lm-projection operators is LMMAX =          32
 
 -----------------------------------------------------------------------------
|                                                                             |
|               ----> ADVICE to this user running VASP <----                  |
|                                                                             |
|     You have a (more or less) 'large supercell' and for larger cells it     |
|     might be more efficient to use real-space projection operators.         |
|     Therefore, try LREAL= Auto in the INCAR file.                           |
|     Mind: For very accurate calculation, you might also keep the            |
|     reciprocal projection scheme (i.e. LREAL=.FALSE.).                      |
|                                                                             |
 -----------------------------------------------------------------------------

  PAW_PBE C 08Apr2002                   :
 energy of atom  1       EATOM= -147.1560
 kinetic energy error for atom=    0.0545 (will be added to EATOM!!)
  PAW_PBE Pr 23Dec2003                  :
 energy of atom  2       EATOM=-1294.6665
 kinetic energy error for atom=    0.0274 (will be added to EATOM!!)
 
 
 POSCAR: 3D\Atomistic
  positions in direct lattice
  velocities in cartesian coordinates
 exchange correlation table for  LEXCH =        8
   RHO(1)=    0.500       N(1)  =     2000
   RHO(2)=  100.500       N(2)  =     4000
 


--------------------------------------------------------------------------------------------------------


 ion  position               nearest neighbor table
   1  1.000  0.000  0.000- 164 1.53   6 1.53 198 1.54  72 1.54
   2  1.000  0.167  0.167-   6 1.53  24 1.53   7 1.54  21 1.54
   3  0.166  0.000  0.166-   6 1.53  55 1.54   5 1.54  56 1.54
   4  0.166  0.167  0.000- 150 1.53   6 1.53   8 1.54 148 1.54
   5  0.249  0.084  0.249-  81 1.52  76 1.53  10 1.53   3 1.54
   6  0.083  0.083  0.083-   3 1.53   2 1.53   1 1.53   4 1.53
   7  0.083  0.250  0.250-  97 1.53  76 1.53  27 1.53   2 1.54
   8  0.250  0.250  0.083-  10 1.53  33 1.53  27 1.53   4 1.54
   9  0.333  0.000  1.000- 148 1.53  56 1.53 206 1.53  14 1.54
  10  0.333  0.167  0.166-   8 1.53   5 1.53  15 1.53  14 1.54
  11  0.500  0.002  0.164-  63 1.51  14 1.52  64 1.54  13 1.54
  12  0.500  0.167  0.000-  16 1.52 156 1.52 158 1.52  14 1.52
  13  0.583  0.084  0.250-  18 1.53  84 1.53  11 1.54  89 1.54
  14  0.417  0.084  0.082-  11 1.52  12 1.52   9 1.54  10 1.54
  15  0.417  0.250  0.249-  10 1.53  84 1.53  35 1.54 105 1.54
  16  0.583  0.249  0.082-  35 1.52  12 1.52  41 1.54  18 1.54
  17  0.667  0.000  0.000-  22 1.53 214 1.53  64 1.53 156 1.54
  18  0.667  0.166  0.166-  22 1.53  23 1.53  13 1.53  16 1.54
  19  0.833  1.000  0.167-  72 1.53  22 1.53  21 1.53  71 1.54
  20  0.833  0.167  0.000- 164 1.53  24 1.53 166 1.54  22 1.54
  21  0.917  0.083  0.250-  92 1.53  73 1.53  19 1.53   2 1.54
  22  0.750  0.083  0.083-  18 1.53  17 1.53  19 1.53  20 1.54
  23  0.751  0.249  0.249- 113 1.52  92 1.53  18 1.53  43 1.54
  24  0.917  0.250  0.083-  43 1.53   2 1.53  20 1.53  25 1.53
  25  1.000  0.333  0.000- 150 1.53  24 1.53  30 1.54 188 1.54
  26  0.000  0.500  0.166-  30 1.53  45 1.53  31 1.53  48 1.54
  27  0.167  0.333  0.167-   8 1.53  30 1.53   7 1.53  29 1.54
  28  0.166  0.500  0.000-  30 1.53 172 1.53  32 1.53 174 1.54
  29  0.250  0.417  0.250- 100 1.53 105 1.53  34 1.53  27 1.54
  30  0.083  0.416  0.083-  26 1.53  28 1.53  27 1.53  25 1.54
  31  0.083  0.583  0.249-  26 1.53 121 1.53  51 1.54 100 1.54
  32  0.249  0.583  0.083-  28 1.53  57 1.53  51 1.54  34 1.54
  33  0.333  0.333  0.000-   8 1.53 172 1.53  38 1.53 158 1.54
  34  0.333  0.500  0.166-  29 1.53  39 1.54  38 1.54  32 1.54
  35  0.500  0.331  0.164-  37 1.51  16 1.52  15 1.54  38 1.54
  36  0.500  0.500  1.000-  40 1.53 182 1.53 180 1.53  38 1.53
  37  0.584  0.412  0.245-  35 1.51 108 1.51  42 1.55 113 1.55
  38  0.417  0.416  0.083-  33 1.53  36 1.53  35 1.54  34 1.54
  39  0.417  0.584  0.249-  59 1.53  34 1.54 108 1.56 129 1.56
  40  0.584  0.583  0.083-  65 1.53  36 1.53  42 1.54  59 1.54
  41  0.667  0.333  1.000- 166 1.53  46 1.53 180 1.53  16 1.54
  42  0.668  0.499  0.164-  46 1.52  40 1.54  37 1.55  47 1.55
  43  0.834  0.333  0.166-  24 1.53  23 1.54  45 1.54  46 1.54
  44  0.834  0.500  1.000- 188 1.53  46 1.53 190 1.53  48 1.54
  45  0.918  0.416  0.249- 116 1.52  97 1.53  26 1.53  43 1.54
  46  0.751  0.416  0.082-  42 1.52  41 1.53  44 1.53  43 1.54
  47  0.755  0.583  0.245-  67 1.51 136 1.51  42 1.55 116 1.55
  48  0.918  0.583  0.082-  67 1.52  49 1.52  44 1.54  26 1.54
  49  1.000  0.667  0.000-  54 1.52 212 1.52  48 1.52 174 1.52
  50  1.000  0.834  0.166-  72 1.53  55 1.53  69 1.53  54 1.54
  51  0.164  0.667  0.164-  53 1.51  54 1.52  31 1.54  32 1.54
  52  0.166  0.834  1.000- 198 1.53  56 1.53 196 1.53  54 1.54
  53  0.245  0.750  0.245-  51 1.51 129 1.51  58 1.55 124 1.55
  54  0.082  0.750  0.082-  51 1.52  49 1.52  52 1.54  50 1.54
  55  0.082  0.917  0.249- 124 1.52  73 1.53  50 1.53   3 1.54
  56  0.249  0.917  0.082-  58 1.52  52 1.53   9 1.53   3 1.54
  57  0.333  0.667  1.000-  62 1.53 182 1.53 196 1.53  32 1.53
  58  0.332  0.834  0.164-  56 1.52  62 1.54  53 1.55  63 1.55
  59  0.500  0.667  0.166-  39 1.53  61 1.53  62 1.54  40 1.54
  60  0.500  0.834  1.000-  62 1.53 204 1.53 206 1.53  64 1.53
  61  0.582  0.749  0.249-  59 1.53  66 1.54 131 1.56 136 1.56
  62  0.416  0.750  0.083-  60 1.53  57 1.53  58 1.54  59 1.54
  63  0.416  0.921  0.245-  11 1.51 131 1.51  58 1.55  81 1.55
  64  0.583  0.917  0.083-  17 1.53  60 1.53  11 1.54  66 1.54
  65  0.667  0.667  1.000-  40 1.53 204 1.53  70 1.53 190 1.53
  66  0.667  0.833  0.167-  71 1.53  61 1.54  64 1.54  70 1.54
  67  0.836  0.666  0.164-  47 1.51  48 1.52  69 1.54  70 1.54
  68  0.834  0.834  0.000-  72 1.53 214 1.53  70 1.53 212 1.54
  69  0.917  0.750  0.250-  50 1.53 121 1.53  67 1.54 139 1.54
  70  0.750  0.750  0.083-  68 1.53  65 1.53  67 1.54  66 1.54
  71  0.750  0.916  0.250-  89 1.53  66 1.53 139 1.53  19 1.54
  72  0.917  0.917  0.083-  68 1.53  50 1.53  19 1.53   1 1.54
  73  1.000  0.000  0.333-  21 1.53  55 1.53 143 1.53  78 1.54
  74  1.000  0.167  0.500-  96 1.52  78 1.52  79 1.52  93 1.52
  75  0.164  0.002  0.500- 128 1.51  78 1.52 127 1.54  77 1.54
  76  0.166  0.167  0.333-   7 1.53   5 1.53  80 1.53  78 1.54
  77  0.249  0.084  0.583- 147 1.53  82 1.53  75 1.54 152 1.54
  78  0.082  0.084  0.417-  75 1.52  74 1.52  76 1.54  73 1.54
  79  0.082  0.249  0.583-  99 1.52  74 1.52 147 1.54 168 1.54
  80  0.249  0.250  0.417-  76 1.53  82 1.53  99 1.54 105 1.54
  81  0.332  0.002  0.332-   5 1.52  86 1.54 128 1.55  63 1.55
  82  0.333  0.167  0.500-  86 1.53  87 1.53  80 1.53  77 1.53
  83  0.500  0.001  0.500- 134 1.53 135 1.53  85 1.54  86 1.54
  84  0.500  0.167  0.333-  86 1.53  88 1.53  15 1.53  13 1.53
  85  0.584  0.084  0.584- 155 1.53  90 1.53 160 1.54  83 1.54
  86  0.416  0.084  0.416-  82 1.53  84 1.53  81 1.54  83 1.54
  87  0.416  0.249  0.584- 155 1.53  82 1.53 176 1.53 107 1.54
  88  0.584  0.249  0.416-  84 1.53  90 1.53 113 1.53 107 1.54
  89  0.667  0.000  0.333-  71 1.53 135 1.54  94 1.54  13 1.54
  90  0.667  0.167  0.500-  85 1.53  88 1.53  95 1.53  94 1.53
  91  0.836  0.002  0.500- 142 1.51  93 1.52 143 1.54  94 1.54
  92  0.834  0.166  0.333-  21 1.53  23 1.53  94 1.53  96 1.54
  93  0.918  0.084  0.583-  91 1.52  74 1.52 144 1.54 163 1.54
  94  0.750  0.084  0.417-  92 1.53  90 1.53  91 1.54  89 1.54
  95  0.751  0.250  0.583- 163 1.53  90 1.53 115 1.54 184 1.54
  96  0.918  0.249  0.417- 115 1.52  74 1.52  97 1.54  92 1.54
  97  0.000  0.333  0.333-   7 1.53  45 1.53 102 1.53  96 1.54
  98  0.000  0.500  0.500- 120 1.53 103 1.53 102 1.53 117 1.53
  99  0.164  0.331  0.500- 101 1.51  79 1.52  80 1.54 102 1.54
 100  0.167  0.500  0.333-  29 1.53 104 1.54 102 1.54  31 1.54
 101  0.245  0.412  0.584-  99 1.51 106 1.51 176 1.55 171 1.55
 102  0.083  0.416  0.417-  97 1.53  98 1.53  99 1.54 100 1.54
 103  0.083  0.583  0.584- 192 1.53  98 1.53 171 1.53 123 1.54
 104  0.249  0.584  0.417- 123 1.53 100 1.54 106 1.56 129 1.56
 105  0.333  0.333  0.333-  29 1.53 110 1.54  15 1.54  80 1.54
 106  0.328  0.495  0.503- 111 1.48 101 1.51 104 1.56 110 1.56 216 2.61
 107  0.500  0.332  0.500- 110 1.53 109 1.53  88 1.54  87 1.54
 108  0.503  0.494  0.328- 112 1.48  37 1.51 110 1.56  39 1.56 216 2.59
 109  0.583  0.416  0.583- 107 1.53 184 1.54 114 1.56 179 1.56
 110  0.417  0.416  0.417- 107 1.53 105 1.54 108 1.56 106 1.56
 111  0.393  0.559  0.607- 200 1.48 179 1.48 106 1.48 216 2.00
 112  0.608  0.558  0.392- 108 1.48 114 1.48 136 1.48 216 1.98
 113  0.668  0.331  0.332-  23 1.52  88 1.53 118 1.55  37 1.55
 114  0.672  0.494  0.497- 112 1.48 118 1.51 109 1.56 119 1.56 216 2.59
 115  0.836  0.331  0.500- 118 1.51  96 1.52  95 1.54 117 1.54
 116  0.836  0.499  0.332-  45 1.52 120 1.54 118 1.55  47 1.55
 117  0.917  0.416  0.583- 168 1.53  98 1.53 115 1.54 187 1.54
 118  0.755  0.412  0.416- 115 1.51 114 1.51 116 1.55 113 1.55
 119  0.751  0.584  0.583- 138 1.53 187 1.54 114 1.56 208 1.56
 120  0.917  0.583  0.416- 121 1.53  98 1.53 116 1.54 138 1.54
 121  0.000  0.667  0.333- 120 1.53 126 1.53  69 1.53  31 1.53
 122  0.000  0.834  0.500- 140 1.53 126 1.53 127 1.53 143 1.53
 123  0.166  0.667  0.500- 104 1.53 125 1.53 126 1.54 103 1.54
 124  0.164  0.835  0.332-  55 1.52 126 1.53 128 1.55  53 1.55
 125  0.249  0.749  0.583- 123 1.53 195 1.54 200 1.56 130 1.56
 126  0.083  0.750  0.416- 122 1.53 121 1.53 124 1.53 123 1.54
 127  0.083  0.917  0.583- 144 1.53 122 1.53  75 1.54 195 1.54
 128  0.245  0.921  0.416-  75 1.51 130 1.51  81 1.55 124 1.55
 129  0.328  0.670  0.328- 133 1.48  53 1.51 104 1.56  39 1.56 216 2.59
 130  0.328  0.839  0.497- 133 1.48 128 1.51 125 1.56 134 1.56 216 2.59
 131  0.497  0.839  0.328- 133 1.48  63 1.51 135 1.56  61 1.56 216 2.57
 132  0.608  0.775  0.608- 203 1.48 208 1.48 137 1.48 216 1.98
 133  0.392  0.775  0.392- 130 1.48 129 1.48 131 1.48 216 1.98
 134  0.417  0.918  0.583-  83 1.53 152 1.54 130 1.56 203 1.56
 135  0.582  0.918  0.418-  83 1.53  89 1.54 131 1.56 137 1.56
 136  0.672  0.663  0.328- 112 1.48  47 1.51 141 1.56  61 1.56 216 2.57
 137  0.672  0.839  0.503- 132 1.48 142 1.51 135 1.56 141 1.56 216 2.57
 138  0.834  0.667  0.500- 119 1.53 141 1.53 140 1.54 120 1.54
 139  0.833  0.833  0.333-  71 1.53 141 1.54 143 1.54  69 1.54
 140  0.917  0.750  0.584- 122 1.53 192 1.53 211 1.54 138 1.54
 141  0.751  0.749  0.418- 138 1.53 139 1.54 137 1.56 136 1.56
 142  0.755  0.921  0.584-  91 1.51 137 1.51 211 1.55 160 1.55
 143  0.917  0.917  0.417-  73 1.53 122 1.53  91 1.54 139 1.54
 144  0.000  0.000  0.667- 149 1.53 215 1.53 127 1.53  93 1.54
 145  1.000  0.167  0.834- 150 1.53 164 1.53 167 1.54 149 1.54
 146  0.167  1.000  0.833- 198 1.53 148 1.53 149 1.53 199 1.54
 147  0.166  0.166  0.667- 149 1.53 151 1.53  77 1.53  79 1.54
 148  0.250  0.083  0.917-   9 1.53 153 1.53 146 1.53   4 1.54
 149  0.083  0.083  0.750- 144 1.53 147 1.53 146 1.53 145 1.54
 150  0.083  0.250  0.917- 170 1.53  25 1.53 145 1.53   4 1.53
 151  0.249  0.249  0.751- 176 1.52 153 1.53 147 1.53 170 1.54
 152  0.333  0.000  0.667- 199 1.53 134 1.54  77 1.54 157 1.54
 153  0.333  0.166  0.834- 148 1.53 151 1.53 157 1.53 158 1.54
 154  0.500  0.002  0.836- 207 1.51 156 1.52 206 1.54 157 1.54
 155  0.500  0.167  0.667-  85 1.53  87 1.53 159 1.53 157 1.53
 156  0.583  0.084  0.918- 154 1.52  12 1.52 161 1.54  17 1.54
 157  0.417  0.084  0.751- 153 1.53 155 1.53 154 1.54 152 1.54
 158  0.417  0.249  0.918- 178 1.52  12 1.52 153 1.54  33 1.54
 159  0.583  0.250  0.751- 161 1.53 155 1.53 178 1.54 184 1.54
 160  0.668  0.002  0.668- 165 1.52  85 1.54 207 1.55 142 1.55
 161  0.667  0.167  0.834- 166 1.53 165 1.53 159 1.53 156 1.54
 162  0.834  0.000  0.834- 164 1.53 214 1.54 165 1.54 215 1.54
 163  0.834  0.167  0.667- 167 1.53 165 1.53  95 1.53  93 1.54
 164  0.917  0.083  0.917- 162 1.53  20 1.53   1 1.53 145 1.53
 165  0.751  0.084  0.751- 160 1.52 161 1.53 163 1.53 162 1.54
 166  0.750  0.250  0.917-  41 1.53 161 1.53 186 1.53  20 1.54
 167  0.917  0.250  0.750- 163 1.53 168 1.53 186 1.53 145 1.54
 168  1.000  0.333  0.667- 167 1.53 173 1.53 117 1.53  79 1.54
 169  1.000  0.500  0.834- 188 1.53 173 1.53 191 1.53 174 1.54
 170  0.166  0.333  0.834- 150 1.53 173 1.53 172 1.53 151 1.54
 171  0.165  0.499  0.668- 173 1.52 103 1.53 175 1.55 101 1.55
 172  0.249  0.416  0.918- 177 1.52  28 1.53  33 1.53 170 1.53
 173  0.082  0.416  0.751- 171 1.52 169 1.53 168 1.53 170 1.53
 174  0.082  0.583  0.918- 194 1.52  49 1.52  28 1.54 169 1.54
 175  0.245  0.583  0.755- 194 1.51 200 1.51 177 1.55 171 1.55
 176  0.332  0.331  0.668- 151 1.52  87 1.53 101 1.55 181 1.55
 177  0.332  0.499  0.835- 172 1.52 182 1.53 175 1.55 181 1.55
 178  0.500  0.331  0.836- 181 1.51 158 1.52 159 1.54 180 1.54
 179  0.497  0.495  0.672- 111 1.48 181 1.51 183 1.56 109 1.56 216 2.61
 180  0.583  0.416  0.917-  41 1.53  36 1.53 178 1.54 185 1.54
 181  0.416  0.412  0.755- 178 1.51 179 1.51 176 1.55 177 1.55
 182  0.416  0.583  0.917-  57 1.53  36 1.53 177 1.53 202 1.54
 183  0.583  0.584  0.751- 202 1.53 185 1.54 179 1.56 208 1.56
 184  0.667  0.333  0.667- 189 1.53 109 1.54  95 1.54 159 1.54
 185  0.667  0.500  0.833- 189 1.53 183 1.54 180 1.54 190 1.54
 186  0.833  0.333  0.833- 167 1.53 188 1.53 166 1.53 189 1.54
 187  0.834  0.500  0.667- 189 1.53 119 1.54 117 1.54 191 1.54
 188  0.917  0.416  0.917-  44 1.53 169 1.53 186 1.53  25 1.54
 189  0.750  0.417  0.750- 185 1.53 184 1.53 187 1.53 186 1.54
 190  0.751  0.583  0.917-  44 1.53  65 1.53 210 1.54 185 1.54
 191  0.917  0.583  0.751- 169 1.53 192 1.53 210 1.54 187 1.54
 192  0.000  0.667  0.667- 140 1.53 103 1.53 197 1.53 191 1.53
 193  0.000  0.834  0.834- 198 1.53 215 1.53 197 1.53 212 1.54
 194  0.164  0.666  0.836- 175 1.51 174 1.52 197 1.54 196 1.54
 195  0.167  0.833  0.667- 199 1.53 125 1.54 127 1.54 197 1.54
 196  0.249  0.750  0.917-  52 1.53  57 1.53 194 1.54 201 1.54
 197  0.083  0.750  0.751- 193 1.53 192 1.53 194 1.54 195 1.54
 198  0.083  0.917  0.917-  52 1.53 193 1.53 146 1.53   1 1.54
 199  0.250  0.917  0.750- 201 1.53 195 1.53 152 1.53 146 1.54
 200  0.328  0.664  0.672- 111 1.48 175 1.51 125 1.56 205 1.56 216 2.61
 201  0.333  0.833  0.833- 199 1.53 205 1.54 206 1.54 196 1.54
 202  0.500  0.667  0.834- 183 1.53 205 1.53 204 1.54 182 1.54
 203  0.503  0.839  0.672- 132 1.48 207 1.51 205 1.56 134 1.56 216 2.59
 204  0.584  0.750  0.917-  60 1.53  65 1.53 209 1.53 202 1.54
 205  0.417  0.749  0.751- 202 1.53 201 1.54 200 1.56 203 1.56
 206  0.417  0.917  0.917-   9 1.53  60 1.53 154 1.54 201 1.54
 207  0.584  0.921  0.755- 154 1.51 203 1.51 160 1.55 209 1.55
 208  0.672  0.670  0.672- 132 1.48 213 1.51 183 1.56 119 1.56 216 2.59
 209  0.668  0.835  0.836- 214 1.52 204 1.53 207 1.55 213 1.55
 210  0.836  0.667  0.836- 213 1.51 212 1.52 190 1.54 191 1.54
 211  0.836  0.834  0.668- 215 1.52 140 1.54 213 1.55 142 1.55
 212  0.918  0.750  0.918- 210 1.52  49 1.52 193 1.54  68 1.54
 213  0.755  0.750  0.755- 210 1.51 208 1.51 211 1.55 209 1.55
 214  0.751  0.917  0.918- 209 1.52  17 1.53  68 1.53 162 1.54
 215  0.918  0.917  0.751- 211 1.52 193 1.53 144 1.53 162 1.54
 216  0.501  0.668  0.499- 112 1.98 133 1.98 132 1.98 111 2.00 136 2.57 131 2.57 137 2.57 108 2.59
                           114 2.59 129 2.59 208 2.59 130 2.59 203 2.59 106 2.61 179 2.61 200 2.61
 

IMPORTANT INFORMATION: All symmetrisations will be switched off!
NOSYMM: (Re-)initialisation of all symmetry stuff for point group C_1.


----------------------------------------------------------------------------------------

                                     Primitive cell                                     

  volume of cell :    1202.8529

  direct lattice vectors                    reciprocal lattice vectors
    10.635000229  0.000000000  0.000000000     0.094029147  0.000000000  0.000000000
     0.000000000 10.635000229  0.000000000     0.000000000  0.094029147  0.000000000
     0.000000000  0.000000000 10.635000229     0.000000000  0.000000000  0.094029147

  length of vectors
    10.635000229 10.635000229 10.635000229     0.094029147  0.094029147  0.094029147

  position of ions in fractional coordinates (direct lattice)
     0.999967098  0.000147720  0.000032907
     0.999970608  0.166647390  0.166530895
     0.166223135  0.000402085  0.166274743
     0.166489987  0.166661809  0.000021642
     0.249266642  0.084334877  0.249334832
     0.083139057  0.083497754  0.083187145
     0.083396636  0.250063447  0.249828084
     0.249804579  0.250075985  0.083410377
     0.332946004  0.000414935  0.999668697
     0.332944539  0.166998858  0.166262482
     0.499704804  0.002331184  0.164328427
     0.499980534  0.166652123  0.000011976
     0.583296492  0.083598146  0.249541286
     0.416562163  0.084377024  0.082288638
     0.416652329  0.249674756  0.249496700
     0.583404414  0.248883632  0.082249469
     0.667001748  0.000392314  0.000392778
     0.667009777  0.166277156  0.166266057
     0.833235617  0.999900868  0.166764389
     0.833469158  0.166647363  0.000029402
     0.916550100  0.083217620  0.249838667
     0.750161281  0.083217551  0.083449926
     0.750680699  0.248954297  0.249319356
     0.916814925  0.249812453  0.083185199
     0.999981490  0.333163419  0.000018549
     0.000340674  0.499613022  0.166248608
     0.166691269  0.333361207  0.166709715
     0.166230303  0.499632290  0.000303087
     0.250184014  0.416839056  0.250138114
     0.083405387  0.416476150  0.083407078
     0.083016765  0.583317386  0.249489953
     0.249461714  0.583313218  0.082927090
     0.332959890  0.332904400  0.000297908
     0.333271935  0.499932486  0.166371681
     0.500224424  0.330891944  0.164214359
     0.499986526  0.499663837  0.999931619
     0.583783848  0.411846024  0.245184166
     0.416643646  0.416126668  0.082922761
     0.417236428  0.583891710  0.248621166
     0.583695720  0.582918474  0.082609335
     0.667015909  0.332881452  0.999641812
     0.667828565  0.498749226  0.164348206
     0.833730599  0.332892148  0.166269453
     0.833751411  0.499613025  0.999659322
     0.917684134  0.415933080  0.249319751
     0.750680259  0.415933135  0.082315933
     0.754707283  0.582731673  0.245292700
     0.917718909  0.583228578  0.082281080
     0.999987137  0.666652191  0.000012865
     0.999612597  0.833676724  0.166280403
     0.164237818  0.666891806  0.164219916
     0.166216542  0.833685793  0.999653130
     0.245202296  0.750448112  0.245200741
     0.082222852  0.750073731  0.082259097
     0.082297465  0.917352270  0.249333834
     0.249272305  0.917345789  0.082330768
     0.332993712  0.666662065  0.999937252
     0.332095214  0.834491030  0.164368173
     0.499926139  0.666594844  0.165583621
     0.499972693  0.833643857  0.999984197
     0.582495760  0.749151759  0.248995646
     0.416248150  0.750366823  0.082616335
     0.416078351  0.921347762  0.245317565
     0.583289692  0.917111645  0.083065639
     0.666970810  0.666648101  0.999978969
     0.666569876  0.833233441  0.166644571
     0.835682410  0.666361795  0.164317576
     0.833719569  0.833676714  0.000387427
     0.916938341  0.749953915  0.249553106
     0.750446742  0.749953924  0.083061696
     0.749734083  0.916389154  0.250265815
     0.916546058  0.916831308  0.083453917
     0.999607274  0.000392346  0.332998288
     0.999988045  0.166652142  0.500019497
     0.164229481  0.002448009  0.499786210
     0.166221810  0.167020549  0.332987992
     0.249446778  0.083742489  0.583367598
     0.082220098  0.084410215  0.416595772
     0.082264972  0.248933681  0.583430243
     0.249485442  0.249706777  0.416670024
     0.332087182  0.002291505  0.332183303
     0.332990592  0.166718779  0.500013215
     0.499922200  0.001079668  0.500077767
     0.499972829  0.166666323  0.333025339
     0.583695246  0.084039218  0.583759850
     0.416240150  0.084039266  0.416304704
     0.416287707  0.249391986  0.583712324
     0.583710440  0.249338136  0.416289544
     0.666577723  0.000014542  0.333422414
     0.666974721  0.166666293  0.500027170
     0.835671410  0.002331029  0.500295159
     0.833733921  0.166277197  0.332990289
     0.917711432  0.084377150  0.583437934
     0.750458669  0.083598160  0.416703345
     0.750503334  0.249674707  0.583347813
     0.917750644  0.248883548  0.416595477
     0.000358171  0.332881484  0.332984165
     0.000068412  0.499663912  0.500013476
     0.164293575  0.330953059  0.500245483
     0.166600965  0.499982904  0.333317317
     0.245384642  0.412045921  0.583713060
     0.083045041  0.416143428  0.416665592
     0.082741670  0.582960864  0.583718411
     0.248977294  0.583994948  0.417300625
     0.333333648  0.333263124  0.333329176
     0.327949356  0.494618122  0.503070360
     0.500018460  0.332424313  0.499981556
     0.502963712  0.494422728  0.327601237
     0.582699919  0.415646278  0.582661610
     0.417338409  0.415646313  0.417300195
     0.392622779  0.559332373  0.607377624
     0.607961232  0.558325575  0.392038691
     0.667856673  0.331014061  0.332143404
     0.672399090  0.494422659  0.497036562
     0.835785622  0.330891971  0.499775620
     0.835651830  0.498749234  0.332171540
     0.917077352  0.416126515  0.583356516
     0.754815880  0.411845955  0.416216145
     0.751378786  0.583891598  0.582763584
     0.917390628  0.582918437  0.416304258
     0.000021034  0.666648090  0.333029334
     0.000015793  0.833643805  0.500027329
     0.165767854  0.666691217  0.499985735
     0.164375410  0.834528914  0.332152642
     0.248969883  0.749381502  0.582688615
     0.082695033  0.750386966  0.416292457
     0.083010375  0.917178888  0.583357179
     0.245193532  0.921472229  0.416235899
     0.327776933  0.669613897  0.327622684
     0.327766638  0.839055188  0.497072445
     0.496838889  0.838756421  0.327912862
     0.607886377  0.774575296  0.608305175
     0.391694812  0.774575785  0.392113034
     0.417214761  0.918051092  0.582785192
     0.582490663  0.917672051  0.417509341
     0.672118017  0.663484948  0.327882236
     0.672087229  0.838756210  0.503160829
     0.834416310  0.666594809  0.500073869
     0.833355289  0.833233381  0.333430271
     0.917383564  0.750366752  0.583751868
     0.751004277  0.749151737  0.417504245
     0.754682237  0.921347583  0.583921644
     0.916934397  0.917111750  0.416710156
     0.000331217  0.000414923  0.667053930
     0.999978369  0.166661799  0.833509971
     0.166681448  0.999965393  0.833318545
     0.166226865  0.166376788  0.667042258
     0.249801698  0.083270028  0.916603151
     0.083396806  0.083270057  0.750198337
     0.083152549  0.249827966  0.916847383
     0.249325050  0.249067348  0.750674969
     0.333256033  0.000294860  0.666743811
     0.332957693  0.166376754  0.833773125
     0.500213766  0.002448000  0.835770578
     0.499986799  0.166718725  0.667009320
     0.583404124  0.084410029  0.917779795
     0.416632530  0.083742453  0.750553246
     0.416569867  0.248933812  0.917734934
     0.583329875  0.249706749  0.750514598
     0.667816712  0.002291375  0.667912720
     0.667012069  0.167020486  0.833778181
     0.833725221  0.000402026  0.833776838
     0.833737517  0.166998785  0.667055411
     0.916812955  0.083497739  0.916860850
     0.750665148  0.084334803  0.750733309
     0.750171914  0.250063424  0.916603323
     0.916589679  0.250075917  0.750195455
     0.999702190  0.332904386  0.667040077
     0.999697001  0.499632270  0.833769700
     0.166261634  0.332935769  0.833738376
     0.164501628  0.498861662  0.667813523
     0.249317971  0.416000063  0.917604209
     0.082395743  0.416000013  0.750682117
     0.082261390  0.583236619  0.917738645
     0.245365360  0.582961236  0.754634718
     0.332197503  0.331161234  0.667802457
     0.332186406  0.498861591  0.835498445
     0.499754527  0.330952944  0.835706584
     0.496929605  0.494618070  0.672050567
     0.583334297  0.416143500  0.916954997
     0.416286967  0.412045905  0.754615449
     0.416281631  0.582960854  0.917258455
     0.582699459  0.583994915  0.751022830
     0.666671001  0.333263056  0.666666268
     0.666682905  0.499982827  0.833399191
     0.833290351  0.333361178  0.833308726
     0.833628267  0.499932483  0.666727936
     0.916592953  0.416476148  0.916594623
     0.749861885  0.416839006  0.749816123
     0.750509933  0.583317346  0.916983253
     0.917072961  0.583313152  0.750538419
     0.000062752  0.666662067  0.667006163
     0.000346795  0.833685767  0.833783438
     0.164277236  0.666422638  0.835722807
     0.166591457  0.833354506  0.666686644
     0.249473764  0.750003354  0.916962292
     0.083037737  0.750003338  0.750526355
     0.083387484  0.916845135  0.916612508
     0.250166427  0.916533840  0.749833675
     0.327928098  0.663612076  0.672071740
     0.333313189  0.833354544  0.833408689
     0.500014310  0.666691188  0.834232256
     0.502927716  0.839054928  0.672232958
     0.583707474  0.750386931  0.917305024
     0.417311367  0.749381489  0.751030223
     0.416642951  0.917178747  0.916989596
     0.583764093  0.921472016  0.754806372
     0.672377429  0.669613694  0.672222782
     0.667847386  0.834528853  0.835624534
     0.835780040  0.666891746  0.835762140
     0.835631710  0.834490912  0.667904641
     0.917740840  0.750073740  0.917777166
     0.754799099  0.750448027  0.754797664
     0.750666088  0.917352147  0.917702464
     0.917669203  0.917345763  0.750727719
     0.501451163  0.667968459  0.498547994

  ion indices of the primitive-cell ions
   primitive index   ion index
                 1           1
                 2           2
                 3           3
                 4           4
                 5           5
                 6           6
                 7           7
                 8           8
                 9           9
                10          10
                11          11
                12          12
                13          13
                14          14
                15          15
                16          16
                17          17
                18          18
                19          19
                20          20
                21          21
                22          22
                23          23
                24          24
                25          25
                26          26
                27          27
                28          28
                29          29
                30          30
                31          31
                32          32
                33          33
                34          34
                35          35
                36          36
                37          37
                38          38
                39          39
                40          40
                41          41
                42          42
                43          43
                44          44
                45          45
                46          46
                47          47
                48          48
                49          49
                50          50
                51          51
                52          52
                53          53
                54          54
                55          55
                56          56
                57          57
                58          58
                59          59
                60          60
                61          61
                62          62
                63          63
                64          64
                65          65
                66          66
                67          67
                68          68
                69          69
                70          70
                71          71
                72          72
                73          73
                74          74
                75          75
                76          76
                77          77
                78          78
                79          79
                80          80
                81          81
                82          82
                83          83
                84          84
                85          85
                86          86
                87          87
                88          88
                89          89
                90          90
                91          91
                92          92
                93          93
                94          94
                95          95
                96          96
                97          97
                98          98
                99          99
               100         100
               101         101
               102         102
               103         103
               104         104
               105         105
               106         106
               107         107
               108         108
               109         109
               110         110
               111         111
               112         112
               113         113
               114         114
               115         115
               116         116
               117         117
               118         118
               119         119
               120         120
               121         121
               122         122
               123         123
               124         124
               125         125
               126         126
               127         127
               128         128
               129         129
               130         130
               131         131
               132         132
               133         133
               134         134
               135         135
               136         136
               137         137
               138         138
               139         139
               140         140
               141         141
               142         142
               143         143
               144         144
               145         145
               146         146
               147         147
               148         148
               149         149
               150         150
               151         151
               152         152
               153         153
               154         154
               155         155
               156         156
               157         157
               158         158
               159         159
               160         160
               161         161
               162         162
               163         163
               164         164
               165         165
               166         166
               167         167
               168         168
               169         169
               170         170
               171         171
               172         172
               173         173
               174         174
               175         175
               176         176
               177         177
               178         178
               179         179
               180         180
               181         181
               182         182
               183         183
               184         184
               185         185
               186         186
               187         187
               188         188
               189         189
               190         190
               191         191
               192         192
               193         193
               194         194
               195         195
               196         196
               197         197
               198         198
               199         199
               200         200
               201         201
               202         202
               203         203
               204         204
               205         205
               206         206
               207         207
               208         208
               209         209
               210         210
               211         211
               212         212
               213         213
               214         214
               215         215
               216         216

----------------------------------------------------------------------------------------

 
 
 KPOINTS: 1 x 1 x 1 k-mesh (automatic generation o

Automatic generation of k-mesh.
 Grid dimensions read from file:
 generate k-points for:    1    1    1

 Generating k-lattice:

  Cartesian coordinates                     Fractional coordinates (reciprocal lattice)
     0.094029147  0.000000000  0.000000000     1.000000000  0.000000000  0.000000000
     0.000000000  0.094029147  0.000000000     0.000000000  1.000000000  0.000000000
     0.000000000  0.000000000  0.094029147     0.000000000  0.000000000  1.000000000

  Length of vectors
     0.094029147  0.094029147  0.094029147

  Shift w.r.t. Gamma in fractional coordinates (k-lattice)
     0.000000000  0.000000000  0.000000000

 
 Subroutine IBZKPT returns following result:
 ===========================================
 
 Found      1 irreducible k-points:
 
 Following reciprocal coordinates:
            Coordinates               Weight
  0.000000  0.000000  0.000000      1.000000
 
 Following cartesian coordinates:
            Coordinates               Weight
  0.000000  0.000000  0.000000      1.000000
 
 
 Subroutine IBZKPT_HF returns following result:
 ==============================================
 
 Found      1 k-points in 1st BZ
 the following      1 k-points will be used (e.g. in the exchange kernel)
 Following reciprocal coordinates:   # in IRBZ
  0.000000  0.000000  0.000000    1.00000000   1 t-inv F


--------------------------------------------------------------------------------------------------------




 Dimension of arrays:
   k-points           NKPTS =      1   k-points in BZ     NKDIM =      1   number of bands    NBANDS=    654
   number of dos      NEDOS =    301   number of ions     NIONS =    216
   non local maximal  LDIM  =      8   non local SUM 2l+1 LMDIM =     32
   total plane-waves  NPLWV = 343000
   max r-space proj   IRMAX =      1   max aug-charges    IRDMAX=  15313
   dimension x,y,z NGX =    70 NGY =   70 NGZ =   70
   dimension x,y,z NGXF=   140 NGYF=  140 NGZF=  140
   support grid    NGXF=   140 NGYF=  140 NGZF=  140
   ions per type =             215   1
   NGX,Y,Z   is equivalent  to a cutoff of  10.94, 10.94, 10.94 a.u.
   NGXF,Y,Z  is equivalent  to a cutoff of  21.88, 21.88, 21.88 a.u.

 SYSTEM =  unknown system                          
 POSCAR =  3D\Atomistic                            

 Startparameter for this run:
   NWRITE =      2    write-flag & timer
   PREC   = accura    normal or accurate (medium, high low for compatibility)
   ISTART =      1    job   : 0-new  1-cont  2-samecut
   ICHARG =      0    charge: 1-file 2-atom 10-const
   ISPIN  =      2    spin polarized calculation?
   LNONCOLLINEAR =      F non collinear calculations
   LSORBIT =      F    spin-orbit coupling
   INIWAV =      1    electr: 0-lowe 1-rand  2-diag
   LASPH  =      F    aspherical Exc in radial PAW
 Electronic Relaxation 1
   ENCUT  =  370.0 eV  27.19 Ry    5.21 a.u.  16.68 16.68 16.68*2*pi/ulx,y,z
   ENINI  =  370.0     initial cutoff
   ENAUG  =  740.0 eV  augmentation charge cutoff
   NELM   =     60;   NELMIN=  2; NELMDL=  0     # of ELM steps 
   EDIFF  = 0.1E-04   stopping-criterion for ELM
   LREAL  =      F    real-space projection
   NLSPLINE    = F    spline interpolate recip. space projectors
   LCOMPAT=      F    compatible to vasp.4.4
   GGA_COMPAT  = T    GGA compatible to vasp.4.4-vasp.4.6
   LMAXPAW     = -100 max onsite density
   LMAXMIX     =    2 max onsite mixed and CHGCAR
   VOSKOWN=      0    Vosko Wilk Nusair interpolation
   ROPT   =    0.00000   0.00000
 Ionic relaxation
   EDIFFG = -.1E-01   stopping-criterion for IOM
   NSW    =      0    number of steps for IOM
   NBLOCK =      1;   KBLOCK =      1    inner block; outer block 
   IBRION =     -1    ionic relax: 0-MD 1-quasi-New 2-CG
   NFREE  =      1    steps in history (QN), initial steepest desc. (CG)
   ISIF   =      1    stress and relaxation
   IWAVPR =     10    prediction:  0-non 1-charg 2-wave 3-comb
   ISYM   =      0    0-nonsym 1-usesym 2-fastsym
   LCORR  =      T    Harris-Foulkes like correction to forces

   POTIM  = 0.2000    time-step for ionic-motion
   TEIN   =    0.0    initial temperature
   TEBEG  =    0.0;   TEEND  =   0.0 temperature during run
   SMASS  =  -3.00    Nose mass-parameter (am)
   estimated Nose-frequenzy (Omega)   =  0.10E-29 period in steps = 0.31E+47 mass=  -0.258E-26a.u.
   SCALEE = 1.0000    scale energy and forces
   NPACO  =    256;   APACO  = 16.0  distance and # of slots for P.C.
   PSTRESS=    0.0 pullay stress

  Mass of Ions in am
   POMASS =  12.01140.91
  Ionic Valenz
   ZVAL   =   4.00 13.00
  Atomic Wigner-Seitz radii
   RWIGS  =  -1.00 -1.00
  virtual crystal weights 
   VCA    =   1.00  1.00
   NELECT =     873.0000    total number of electrons
   NUPDOWN=      -1.0000    fix difference up-down

 DOS related values:
   EMIN   =  10.00;   EMAX   =-10.00  energy-range for DOS
   EFERMI =   0.00
   ISMEAR =     0;   SIGMA  =   0.01  broadening in eV -4-tet -1-fermi 0-gaus

 Electronic relaxation 2 (details)
   IALGO  =     58    algorithm
   LDIAG  =      T    sub-space diagonalisation (order eigenvalues)
   LSUBROT=      F    optimize rotation matrix (better conditioning)
   TURBO    =      0    0=normal 1=particle mesh
   IRESTART =      0    0=no restart 2=restart with 2 vectors
   NREBOOT  =      0    no. of reboots
   NMIN     =      0    reboot dimension
   EREF     =   0.00    reference energy to select bands
   IMIX   =      4    mixing-type and parameters
     AMIX     =   0.40;   BMIX     =  1.00
     AMIX_MAG =   1.60;   BMIX_MAG =  1.00
     AMIN     =   0.10
     WC   =   100.;   INIMIX=   1;  MIXPRE=   1;  MAXMIX= -45

 Intra band minimization:
   WEIMIN = 0.0000     energy-eigenvalue tresh-hold
   EBREAK =  0.38E-08  absolut break condition
   DEPER  =   0.30     relativ break condition  

   TIME   =   0.40     timestep for ELM

  volume/ion in A,a.u.               =       5.57        37.58
  Fermi-wavevector in a.u.,A,eV,Ry     =   1.471213  2.780189 29.449351  2.164466
  Thomas-Fermi vector in A             =   2.586376
 
 Write flags
   LWAVE        =      T    write WAVECAR
   LDOWNSAMPLE  =      F    k-point downsampling of WAVECAR
   LCHARG       =      T    write CHGCAR
   LVTOT        =      F    write LOCPOT, total local potential
   LVHAR        =      F    write LOCPOT, Hartree potential only
   LELF         =      F    write electronic localiz. function (ELF)
   LORBIT       =      0    0 simple, 1 ext, 2 COOP (PROOUT), +10 PAW based schemes


 Dipole corrections
   LMONO  =      F    monopole corrections only (constant potential shift)
   LDIPOL =      F    correct potential (dipole corrections)
   IDIPOL =      0    1-x, 2-y, 3-z, 4-all directions 
   EPSILON=  1.0000000 bulk dielectric constant

 Exchange correlation treatment:
   GGA     =    PE    GGA type
   LEXCH   =     8    internal setting for exchange type
   VOSKOWN=      0    Vosko Wilk Nusair interpolation
   EXXOEP  =     0    0=HF, 1=EXX-LHF (local Hartree Fock) 2=EXX OEP
   LHFCALC =     T    Hartree Fock is set to
   LSYMGRAD=     F    symmetrize gradient (conserves proper symmetry)
   PRECFOCK=normal    Normal, Fast or Accurate (Low or Medium for compatibility)
   LRHFCALC=     F    long range Hartree Fock
   LRSCOR  =     F    long range correlation only (use DFT for short range part)
   LTHOMAS =     F    Thomas Fermi screening in HF
   LMODELHF=     F    short range full HF, long range fraction AEXX
   LFOCKACE=     T    use Adeptively-Compressed-Exchange operator
   ENCUT4O =  -1.0   cutoff for four orbital integrals eV
   LMAXFOCK=     4    L truncation for augmentation on plane wave grid
   LMAXFOCKAE=  -1    L truncation for all-electron charge restoration on plane wave grid
   NMAXFOCKAE=   1    number of basis functions for all-electron charge restoration
   LFOCKAEDFT=     F  apply the AE augmentation even for DFT
   NKREDX  =     1    reduce k-point grid by
   NKREDY  =     1    reduce k-point grid by
   NKREDZ  =     1    reduce k-point grid by
   SHIFTRED=     F    shift reduced grid of Gamma
   HFKIDENT=     F    idential grid for each k-point
   ODDONLY =     F    use only odd q-grid points
   EVENONLY=     F    use only even q-grid points
   HFALPHA =   -1.0000 decay constant for conv. correction
   MCALPHA =    0.0000 extent of test-charge in conv. correction in multipole expansion
   AEXX    =    0.2500 exact exchange contribution
   HFSCREEN=    0.2000 screening length (either q_TF or 0.3 A-1)
   HFSCREENC=   0.2000 screening length for correlation (either q_TF or 0.3 A-1)
   HFRCUT  =    0.0000 spherical cutoff for potential kernel
   ALDAX   =    0.7500 LDA exchange part
   AGGAX   =    0.7500 GGA exchange part
   ALDAC   =    1.0000 LDA correlation
   AGGAC   =    1.0000 GGA correlation
   ENCUTFOCK=  -1.0 apply spherical cutoff to Coloumb kernel
   NBANDSGWLOW=     1    first orbital included in HF term
   NBLOCK_FOCK=    64    blocking factor in FOCK_ACC
 Linear response parameters
   LEPSILON=     F    determine dielectric tensor
   LRPA    =     F    only Hartree local field effects (RPA)
   LNABLA  =     F    use nabla operator in PAW spheres
   LVEL    =     F    velocity operator in full k-point grid
   LINTERFAST=   F  fast interpolation
   KINTER  =     0    interpolate to denser k-point grid
   CSHIFT  =0.1000    complex shift for real part using Kramers Kronig
   OMEGAMAX=  -1.0    maximum frequency
   DEG_THRESHOLD= 0.2000000E-02 threshold for treating states as degnerate
   RTIME   =   -0.100 relaxation time in fs
  (WPLASMAI=    0.000 imaginary part of plasma frequency in eV, 0.658/RTIME)
   DFIELD  = 0.0000000 0.0000000 0.0000000 field for delta impulse in time
 
 Orbital magnetization related:
   ORBITALMAG=     F  switch on orbital magnetization
   LCHIMAG   =     F  perturbation theory with respect to B field
   DQ        =  0.001000  dq finite difference perturbation B field
   LLRAUG    =     F  two centre corrections for induced B field



--------------------------------------------------------------------------------------------------------


 Static calculation
 charge density and potential will be updated during run
 spin polarized calculation
 Conjugate gradient for all bands (Freysoldt, et al. PRB 79, 241103 (2009))
 preconditioned conjugated gradient                                        
 perform sub-space diagonalisation
    before iterative eigenvector-optimisation
 modified Broyden-mixing scheme, WC =      100.0
 initial mixing is a Kerker type mixing with AMIX =  0.4000 and BMIX =      1.0000
 Hartree-type preconditioning will be used
 using additional bands          217
 reciprocal scheme for non local part
 use partial core corrections
 no Harris-corrections to forces 
 use gradient corrections 
 use of overlap-Matrix (Vanderbilt PP)
 Gauss-broadening in eV      SIGMA  =   0.01


--------------------------------------------------------------------------------------------------------


  energy-cutoff  :      370.00
  volume of cell :     1202.85
      direct lattice vectors                 reciprocal lattice vectors
    10.635000229  0.000000000  0.000000000     0.094029147  0.000000000  0.000000000
     0.000000000 10.635000229  0.000000000     0.000000000  0.094029147  0.000000000
     0.000000000  0.000000000 10.635000229     0.000000000  0.000000000  0.094029147

  length of vectors
    10.635000229 10.635000229 10.635000229     0.094029147  0.094029147  0.094029147


 
 old parameters found on file WAVECAR:
  energy-cutoff  :      370.00
  volume of cell :     1202.85
      direct lattice vectors                 reciprocal lattice vectors
    10.635000229  0.000000000  0.000000000     0.094029147  0.000000000  0.000000000
     0.000000000 10.635000229  0.000000000     0.000000000  0.094029147  0.000000000
     0.000000000  0.000000000 10.635000229     0.000000000  0.000000000  0.094029147

  length of vectors

 
 k-points in units of 2pi/SCALE and weight: 1 x 1 x 1 k-mesh (automatic generation o
   0.00000000  0.00000000  0.00000000       1.000
 
 k-points in reciprocal lattice and weights: 1 x 1 x 1 k-mesh (automatic generation o
   0.00000000  0.00000000  0.00000000       1.000
 
 position of ions in fractional coordinates (direct lattice) 
   0.99996710  0.00014772  0.00003291
   0.99997061  0.16664739  0.16653090
   0.16622314  0.00040208  0.16627474
   0.16648999  0.16666181  0.00002164
   0.24926664  0.08433488  0.24933483
   0.08313906  0.08349775  0.08318714
   0.08339664  0.25006345  0.24982808
   0.24980458  0.25007598  0.08341038
   0.33294600  0.00041494  0.99966870
   0.33294454  0.16699886  0.16626248
   0.49970480  0.00233118  0.16432843
   0.49998053  0.16665212  0.00001198
   0.58329649  0.08359815  0.24954129
   0.41656216  0.08437702  0.08228864
   0.41665233  0.24967476  0.24949670
   0.58340441  0.24888363  0.08224947
   0.66700175  0.00039231  0.00039278
   0.66700978  0.16627716  0.16626606
   0.83323562  0.99990087  0.16676439
   0.83346916  0.16664736  0.00002940
   0.91655010  0.08321762  0.24983867
   0.75016128  0.08321755  0.08344993
   0.75068070  0.24895430  0.24931936
   0.91681493  0.24981245  0.08318520
   0.99998149  0.33316342  0.00001855
   0.00034067  0.49961302  0.16624861
   0.16669127  0.33336121  0.16670972
   0.16623030  0.49963229  0.00030309
   0.25018401  0.41683906  0.25013811
   0.08340539  0.41647615  0.08340708
   0.08301677  0.58331739  0.24948995
   0.24946171  0.58331322  0.08292709
   0.33295989  0.33290440  0.00029791
   0.33327193  0.49993249  0.16637168
   0.50022442  0.33089194  0.16421436
   0.49998653  0.49966384  0.99993162
   0.58378385  0.41184602  0.24518417
   0.41664365  0.41612667  0.08292276
   0.41723643  0.58389171  0.24862117
   0.58369572  0.58291847  0.08260934
   0.66701591  0.33288145  0.99964181
   0.66782857  0.49874923  0.16434821
   0.83373060  0.33289215  0.16626945
   0.83375141  0.49961302  0.99965932
   0.91768413  0.41593308  0.24931975
   0.75068026  0.41593314  0.08231593
   0.75470728  0.58273167  0.24529270
   0.91771891  0.58322858  0.08228108
   0.99998714  0.66665219  0.00001287
   0.99961260  0.83367672  0.16628040
   0.16423782  0.66689181  0.16421992
   0.16621654  0.83368579  0.99965313
   0.24520230  0.75044811  0.24520074
   0.08222285  0.75007373  0.08225910
   0.08229746  0.91735227  0.24933383
   0.24927230  0.91734579  0.08233077
   0.33299371  0.66666207  0.99993725
   0.33209521  0.83449103  0.16436817
   0.49992614  0.66659484  0.16558362
   0.49997269  0.83364386  0.99998420
   0.58249576  0.74915176  0.24899565
   0.41624815  0.75036682  0.08261633
   0.41607835  0.92134776  0.24531757
   0.58328969  0.91711164  0.08306564
   0.66697081  0.66664810  0.99997897
   0.66656988  0.83323344  0.16664457
   0.83568241  0.66636179  0.16431758
   0.83371957  0.83367671  0.00038743
   0.91693834  0.74995391  0.24955311
   0.75044674  0.74995392  0.08306170
   0.74973408  0.91638915  0.25026581
   0.91654606  0.91683131  0.08345392
   0.99960727  0.00039235  0.33299829
   0.99998804  0.16665214  0.50001950
   0.16422948  0.00244801  0.49978621
   0.16622181  0.16702055  0.33298799
   0.24944678  0.08374249  0.58336760
   0.08222010  0.08441022  0.41659577
   0.08226497  0.24893368  0.58343024
   0.24948544  0.24970678  0.41667002
   0.33208718  0.00229150  0.33218330
   0.33299059  0.16671878  0.50001321
   0.49992220  0.00107967  0.50007777
   0.49997283  0.16666632  0.33302534
   0.58369525  0.08403922  0.58375985
   0.41624015  0.08403927  0.41630470
   0.41628771  0.24939199  0.58371232
   0.58371044  0.24933814  0.41628954
   0.66657772  0.00001454  0.33342241
   0.66697472  0.16666629  0.50002717
   0.83567141  0.00233103  0.50029516
   0.83373392  0.16627720  0.33299029
   0.91771143  0.08437715  0.58343793
   0.75045867  0.08359816  0.41670334
   0.75050333  0.24967471  0.58334781
   0.91775064  0.24888355  0.41659548
   0.00035817  0.33288148  0.33298417
   0.00006841  0.49966391  0.50001348
   0.16429357  0.33095306  0.50024548
   0.16660096  0.49998290  0.33331732
   0.24538464  0.41204592  0.58371306
   0.08304504  0.41614343  0.41666559
   0.08274167  0.58296086  0.58371841
   0.24897729  0.58399495  0.41730063
   0.33333365  0.33326312  0.33332918
   0.32794936  0.49461812  0.50307036
   0.50001846  0.33242431  0.49998156
   0.50296371  0.49442273  0.32760124
   0.58269992  0.41564628  0.58266161
   0.41733841  0.41564631  0.41730020
   0.39262278  0.55933237  0.60737762
   0.60796123  0.55832558  0.39203869
   0.66785667  0.33101406  0.33214340
   0.67239909  0.49442266  0.49703656
   0.83578562  0.33089197  0.49977562
   0.83565183  0.49874923  0.33217154
   0.91707735  0.41612651  0.58335652
   0.75481588  0.41184596  0.41621615
   0.75137879  0.58389160  0.58276358
   0.91739063  0.58291844  0.41630426
   0.00002103  0.66664809  0.33302933
   0.00001579  0.83364381  0.50002733
   0.16576785  0.66669122  0.49998573
   0.16437541  0.83452891  0.33215264
   0.24896988  0.74938150  0.58268862
   0.08269503  0.75038697  0.41629246
   0.08301037  0.91717889  0.58335718
   0.24519353  0.92147223  0.41623590
   0.32777693  0.66961390  0.32762268
   0.32776664  0.83905519  0.49707244
   0.49683889  0.83875642  0.32791286
   0.60788638  0.77457530  0.60830518
   0.39169481  0.77457578  0.39211303
   0.41721476  0.91805109  0.58278519
   0.58249066  0.91767205  0.41750934
   0.67211802  0.66348495  0.32788224
   0.67208723  0.83875621  0.50316083
   0.83441631  0.66659481  0.50007387
   0.83335529  0.83323338  0.33343027
   0.91738356  0.75036675  0.58375187
   0.75100428  0.74915174  0.41750425
   0.75468224  0.92134758  0.58392164
   0.91693440  0.91711175  0.41671016
   0.00033122  0.00041492  0.66705393
   0.99997837  0.16666180  0.83350997
   0.16668145  0.99996539  0.83331854
   0.16622687  0.16637679  0.66704226
   0.24980170  0.08327003  0.91660315
   0.08339681  0.08327006  0.75019834
   0.08315255  0.24982797  0.91684738
   0.24932505  0.24906735  0.75067497
   0.33325603  0.00029486  0.66674381
   0.33295769  0.16637675  0.83377313
   0.50021377  0.00244800  0.83577058
   0.49998680  0.16671872  0.66700932
   0.58340412  0.08441003  0.91777979
   0.41663253  0.08374245  0.75055325
   0.41656987  0.24893381  0.91773493
   0.58332988  0.24970675  0.75051460
   0.66781671  0.00229137  0.66791272
   0.66701207  0.16702049  0.83377818
   0.83372522  0.00040203  0.83377684
   0.83373752  0.16699879  0.66705541
   0.91681296  0.08349774  0.91686085
   0.75066515  0.08433480  0.75073331
   0.75017191  0.25006342  0.91660332
   0.91658968  0.25007592  0.75019545
   0.99970219  0.33290439  0.66704008
   0.99969700  0.49963227  0.83376970
   0.16626163  0.33293577  0.83373838
   0.16450163  0.49886166  0.66781352
   0.24931797  0.41600006  0.91760421
   0.08239574  0.41600001  0.75068212
   0.08226139  0.58323662  0.91773865
   0.24536536  0.58296124  0.75463472
   0.33219750  0.33116123  0.66780246
   0.33218641  0.49886159  0.83549845
   0.49975453  0.33095294  0.83570658
   0.49692961  0.49461807  0.67205057
   0.58333430  0.41614350  0.91695500
   0.41628697  0.41204591  0.75461545
   0.41628163  0.58296085  0.91725846
   0.58269946  0.58399492  0.75102283
   0.66667100  0.33326306  0.66666627
   0.66668291  0.49998283  0.83339919
   0.83329035  0.33336118  0.83330873
   0.83362827  0.49993248  0.66672794
   0.91659295  0.41647615  0.91659462
   0.74986189  0.41683901  0.74981612
   0.75050993  0.58331735  0.91698325
   0.91707296  0.58331315  0.75053842
   0.00006275  0.66666207  0.66700616
   0.00034679  0.83368577  0.83378344
   0.16427724  0.66642264  0.83572281
   0.16659146  0.83335451  0.66668664
   0.24947376  0.75000335  0.91696229
   0.08303774  0.75000334  0.75052635
   0.08338748  0.91684513  0.91661251
   0.25016643  0.91653384  0.74983367
   0.32792810  0.66361208  0.67207174
   0.33331319  0.83335454  0.83340869
   0.50001431  0.66669119  0.83423226
   0.50292772  0.83905493  0.67223296
   0.58370747  0.75038693  0.91730502
   0.41731137  0.74938149  0.75103022
   0.41664295  0.91717875  0.91698960
   0.58376409  0.92147202  0.75480637
   0.67237743  0.66961369  0.67222278
   0.66784739  0.83452885  0.83562453
   0.83578004  0.66689175  0.83576214
   0.83563171  0.83449091  0.66790464
   0.91774084  0.75007374  0.91777717
   0.75479910  0.75044803  0.75479766
   0.75066609  0.91735215  0.91770246
   0.91766920  0.91734576  0.75072772
   0.50145116  0.66796846  0.49854799
 
 position of ions in cartesian coordinates  (Angst):
  10.63465031  0.00157100  0.00034997
  10.63468765  1.77229503  1.77105611
   1.76778308  0.00427617  1.76833193
   1.77062105  1.77244838  0.00023016
   2.65095079  0.89690144  2.65167599
   0.88418389  0.88799864  0.88469530
   0.88692325  2.65942482  2.65692173
   2.65667176  2.65955816  0.88706938
   3.54088083  0.00441284 10.63147682
   3.54086525  1.77603290  1.76820153
   5.31436071  0.02479215  1.74763286
   5.31729309  1.77234536  0.00012736
   6.20335832  0.88906631  2.65387163
   4.43013870  0.89734966  0.87513968
   4.43109761  2.65529108  2.65339746
   6.20450607  2.64687748  0.87472312
   7.09356374  0.00417226  0.00417719
   7.09364913  1.76835759  1.76823955
   8.86146097 10.63394596  1.77353932
   8.86394469  1.77229474  0.00031269
   9.74751053  0.88501940  2.65703428
   7.97796539  0.88501867  0.88748998
   7.98348941  2.64762900  2.65151141
   9.75032694  2.65675549  0.88467461
  10.63480337  3.54319303  0.00019727
   0.00362307  5.31338460  1.76805398
   1.77276169  3.54529651  1.77295786
   1.76785931  5.31358951  0.00322333
   2.66070704  4.43308346  2.66021890
   0.88701631  4.42922395  0.88703429
   0.88288332  6.20358054  2.65332571
   2.65302539  6.20353621  0.88192962
   3.54102851  3.54043837  0.00316826
   3.54434710  5.31678210  1.76936286
   5.31988686  3.51903591  1.74641974
   5.31735682  5.31392502 10.63427300
   6.20854136  4.37998256  2.60753366
   4.43100527  4.42550721  0.88188358
   4.43730950  6.20968847  2.64408616
   6.20760411  6.19933811  0.87855030
   7.09371434  3.54019432 10.63119090
   7.10235694  5.30419813  1.74784321
   8.86672511  3.54030807  1.76827567
   8.86694644  5.31338463 10.63137712
   9.75957098  4.42344840  2.65151560
   7.98348473  4.42344899  0.87542996
   8.02631213  6.19735147  2.60868792
   9.75994081  6.20263606  0.87505930
  10.63486343  7.08984620  0.00013682
  10.63088019  8.86615215  1.76839212
   1.74666923  7.09239451  1.74647885
   1.76771296  8.86624860 10.63131127
   2.60772648  7.98101584  2.60770993
   0.87444005  7.97703430  0.87482552
   0.87523356  9.75604160  2.65166538
   2.65101102  9.75597267  0.87558774
   3.54138821  7.08995122 10.63433291
   3.53183268  8.87481229  1.74805556
   5.31671460  7.08923632  1.76098184
   5.31720970  8.86580261 10.63483217
   6.19484254  7.96722913  2.64806876
   4.42679917  7.98015134  0.87862474
   4.42499335  9.79853366  2.60895236
   6.20328601  9.75348255  0.88340309
   7.09323472  7.08980271 10.63477656
   7.08897078  8.86143783  1.77226505
   8.88748263  7.08675784  1.74751746
   8.86660780  8.86615205  0.00412028
   9.75163947  7.97576005  2.65399734
   7.98100128  7.97576015  0.88336115
   7.97342215  9.74579887  2.66157700
   9.74746754  9.75050117  0.88753243
  10.63082358  0.00417260  3.54143687
  10.63487309  1.77234557  5.31770746
   1.74658056  0.02603458  5.31522646
   1.76776899  1.77626358  3.54132737
   2.65286654  0.89060139  6.20411454
   0.87441076  0.89770266  4.43049613
   0.87488800  2.64740976  6.20478077
   2.65327773  2.65563163  4.43128580
   3.53174726  0.02437015  3.53276950
   3.54135502  1.77305426  5.31764065
   5.31667271  0.01148227  5.31832717
   5.31721115  1.77249638  3.54172455
   6.20759908  0.89375710  6.20828614
   4.42671409  0.89375761  4.42740063
   4.42721986  2.65228383  6.20778070
   6.20776066  2.65171113  4.42723940
   7.08905424  0.00015466  3.54594745
   7.09327631  1.77249606  5.31778907
   8.88736563  0.02479049  5.32063913
   8.86676044  1.76835802  3.54135180
   9.75986129  0.89735101  6.20486256
   7.98112812  0.88906645  4.43164017
   7.98160313  2.65529056  6.20390412
   9.76027831  2.64687659  4.43049300
   0.00380915  3.54019466  3.54128667
   0.00072757  5.31392582  5.31764344
   1.74726220  3.51968586  5.32011082
   1.77180130  5.31731830  3.54482974
   2.60966573  4.38210846  6.20778853
   0.88318403  4.42568545  4.43123867
   0.87995768  6.19978892  6.20784544
   2.64787358  6.21078641  4.43799224
   3.54500342  3.54425340  3.54495586
   3.48774147  5.26026384  5.35015340
   5.31769644  3.53533264  5.31730396
   5.34901919  5.25818582  3.48403923
   6.19701377  4.42039826  6.19660636
   4.43839408  4.42039863  4.43798767
   4.17554335  5.94849992  6.45946117
   6.46566784  5.93779262  4.16933157
   7.10265587  3.52033461  3.53234517
   7.15096448  5.25818509  5.28598395
   8.88858028  3.51903619  5.31511384
   8.88715740  5.30419822  3.53264440
   9.75311785  4.42550558  6.20399668
   8.02746706  4.37998183  4.42645880
   7.99091356  6.20968728  6.19769085
   9.75644954  6.19933771  4.42739588
   0.00022370  7.08980259  3.54176704
   0.00016796  8.86580206  5.31779075
   1.76294116  7.09026125  5.31734840
   1.74813253  8.87521519  3.53244342
   2.64779476  7.96967244  6.19689356
   0.87946169  7.98036555  4.42727038
   0.88281535  9.75419769  6.20400373
   2.60763327  9.79985737  4.42666888
   3.48590776  7.12134395  3.48426732
   3.48579827  8.92335212  5.28636557
   5.28388170  8.92017473  3.48735336
   6.46487176  8.23760845  6.46932568
   4.16567441  8.23761365  4.17012220
   4.43707908  9.76347358  6.19792065
   6.19478833  9.75944247  4.44021194
   7.14797527  7.05616258  3.48702765
   7.14764783  8.92017248  5.35111553
   8.87401765  7.08923595  5.31828572
   8.86273369  8.86143720  3.54603101
   9.75637441  7.98015058  6.20820125
   7.98693066  7.96722889  4.44015775
   8.02604576  9.79853176  6.21000682
   9.75159752  9.75348367  4.43171261
   0.00352249  0.00441270  7.09411869
  10.63477019  1.77244827  8.86437873
   1.77265724 10.63463218  8.86234292
   1.76782275  1.76941718  7.09399456
   2.65664111  0.88557677  9.74807472
   0.88692505  0.88557708  7.97835948
   0.88432738  2.65692048  9.75067213
   2.65157197  2.64883130  7.98342846
   3.54417799  0.00313584  7.09082058
   3.54100514  1.76941681  8.86717738
   5.31977351  0.02603448  8.88842029
   5.31735973  1.77305368  7.09364427
   6.20450299  0.89770068  9.76058833
   4.43088705  0.89060100  7.98213394
   4.43022064  2.64741114  9.76011123
   6.20371336  2.65563133  7.98172292
   7.10223088  0.02436877  7.10325193
   7.09367350  1.77626290  8.86723115
   8.86666792  0.00427554  8.86721686
   8.86679868  1.77603212  7.09413445
   9.75030599  0.88799847  9.75081535
   7.98332403  0.89690065  7.98404891
   7.97807848  2.65942457  9.74807655
   9.74793144  2.65955744  7.97832883
  10.63183302  3.54043822  7.09397138
  10.63177783  5.31358930  8.86714095
   1.76819251  3.54077198  8.86680782
   1.74947485  5.30539389  7.10219697
   2.65149668  4.42416076  9.75872097
   0.87627875  4.42416023  7.98350449
   0.87484990  6.20272158  9.76015070
   2.60946066  6.19979288  8.02554040
   3.53292052  3.52189980  7.10207928
   3.53280251  5.30539314  8.88552616
   5.31488951  3.51968463  8.88773971
   5.28484647  5.26026329  7.14725794
   6.20376038  4.42568622  9.75181660
   4.42721199  4.38210830  8.02533547
   4.42715524  6.19978882  9.75504388
   6.19700888  6.21078606  7.98712797
   7.09004625  3.54425268  7.08999591
   7.09017285  5.31731747  8.86320059
   8.86204307  3.54529620  8.86223850
   8.86563681  5.31678207  7.09065175
   9.74796626  4.42922393  9.74798403
   7.97478132  4.43308292  7.97429464
   7.98167330  6.20358011  9.75211710
   9.75307115  6.20353551  7.98197626
   0.00066737  7.08995124  7.09361069
   0.00368816  8.86624833  8.86728705
   1.74708845  7.08740491  8.88791225
   1.77170018  8.86272537  7.09021261
   2.65315354  7.97628584  9.75189419
   0.88310635  7.97628567  7.98184796
   0.88682592  9.75064822  9.74817424
   2.66052001  9.74733760  7.97448130
   3.48751540  7.05751458  7.14748311
   3.54478584  8.86272576  8.86330160
   5.31765230  7.09026094  8.87206023
   5.34863638  8.92334935  7.14919766
   6.20772912  7.98036518  9.75553914
   4.43810648  7.96967231  7.98720660
   4.43099788  9.75419619  9.75218457
   6.20833126  9.79985510  8.02736594
   7.15073411  7.12134179  7.14908944
   7.10255711  8.87521455  8.88686711
   8.88852092  7.09239387  8.88833055
   8.88694343  8.87481104  7.10316601
   9.76017404  7.97703439  9.76056037
   8.02728859  7.98101494  8.02727333
   7.98333402  9.75604029  9.75976592
   9.75941218  9.75597240  7.98398946
   5.33293324  7.10384471  5.30205804
 


--------------------------------------------------------------------------------------------------------


 use parallel FFT for orbitals z direction half grid
 k-point   1 :   0.0000 0.0000 0.0000  plane waves:    9775

 maximum and minimum number of plane-waves per node :      1225     1219

 maximum number of plane-waves:      9775
 maximum index in each direction: 
   IXMAX=   16   IYMAX=   16   IZMAX=   16
   IXMIN=  -16   IYMIN=  -16   IZMIN=    0


 parallel 3D FFT for wavefunctions:
    minimum data exchange during FFTs selected (reduces bandwidth)
 parallel 3D FFT for charge:
    minimum data exchange during FFTs selected (reduces bandwidth)


 FFT grid for exact exchange (Hartree Fock) 
  NGX = 54; NGY = 54; NGZ = 54

 use parallel FFT for orbitals z direction half grid
 
 Radii for the augmentation spheres in the non-local exchange
 for species   1 augmentation radius   0.874 (default was   0.699)
       energy cutoff for augmentation   1480.0
 for species   2 augmentation radius   1.442 (default was   1.153)
       energy cutoff for augmentation   1480.0

 real space projection operators:
  total allocation   :       5825.72 KBytes
  max/ min on nodes  :        780.30        661.77

 Maximum index for augmentation-charges in exchange          232
  SETUP_FOCK is finished

 total amount of memory used by VASP MPI-rank0    83938. kBytes
=======================================================================

   base      :      30000. kBytes
   nonl-proj :       4856. kBytes
   fftplans  :       5586. kBytes
   grid      :      13063. kBytes
   one-center:       1327. kBytes
   HF        :         73. kBytes
   nonlr-proj:        908. kBytes
   wavefun   :      28125. kBytes
 
     INWAV:  cpu time    1.1306: real time    1.2220
 Broyden mixing: mesh for mixing (old mesh)
   NGX = 33   NGY = 33   NGZ = 33
  (NGX  =140   NGY  =140   NGZ  =140)
  gives a total of  35937 points

 charge density for first step will be calculated from the start-wavefunctions


--------------------------------------------------------------------------------------------------------


 Maximum index for augmentation-charges          712 (set IRDMAX)


--------------------------------------------------------------------------------------------------------


 initial charge from wavefunction
 First call to EWALD:  gamma=   0.167
 Maximum number of real-space cells 3x 3x 3
 Maximum number of reciprocal cells 3x 3x 3

    FEWALD:  cpu time    0.0112: real time    0.0112


--------------------------------------- Iteration      1(   1)  ---------------------------------------


    POTLOK:  cpu time    0.4228: real time    0.4230
    SETDIJ:  cpu time    0.4767: real time    0.4767
    TRIAL :  cpu time  213.9379: real time  214.5738
    CORREC:  cpu time  211.7379: real time  212.4522
    CHARGE:  cpu time    0.1706: real time    0.1706
    --------------------------------------------
      LOOP:  cpu time  426.7522: real time  428.1187

 eigenvalue-minimisations  :     0
 total energy-change (2. order) :-0.2258285E+04  (-0.2794677E+01)
 number of electron     873.0000002 magnetization       0.9999999
 augmentation part       20.2503889 magnetization       1.3488503

 Free energy of the ion-electron system (eV)
  ---------------------------------------------------
  alpha Z        PSCENC =      3347.76369838
  Ewald energy   TEWEN  =    -39063.53545954
  -Hartree energ DENC   =     -2957.24377958
  -exchange      EXHF   =      2020.82707435
  -V(xc)+E(xc)   XCENC  =      2384.57098696
  PAW double counting   =     91962.35880027   -92071.80967681
  entropy T*S    EENTRO =        -0.00000000
  eigenvalues    EBANDS =      -420.07791889
  atomic energy  EATOM  =     32538.86092675
  ---------------------------------------------------
  free energy    TOTEN  =     -2258.28534811 eV

  energy without entropy =    -2258.28534811  energy(sigma->0) =    -2258.28534811
  exchange ACFDT corr.  =         0.00000000  see jH, gK, PRB 81, 115126


--------------------------------------------------------------------------------------------------------




--------------------------------------- Iteration      1(   2)  ---------------------------------------


    POTLOK:  cpu time    0.3798: real time    0.3799
    SETDIJ:  cpu time    0.4672: real time    0.4672
    TRIAL :  cpu time  209.4536: real time  210.3950
    CORREC:  cpu time  210.5820: real time  211.2111
    CHARGE:  cpu time    0.1693: real time    0.1693
    --------------------------------------------
      LOOP:  cpu time  421.0531: real time  422.6236

 eigenvalue-minimisations  :     0
 total energy-change (2. order) :-0.2789638E+01  (-0.4926621E+00)
 number of electron     873.0000002 magnetization       0.9999999
 augmentation part       20.2041442 magnetization       1.2954852

 Free energy of the ion-electron system (eV)
  ---------------------------------------------------
  alpha Z        PSCENC =      3347.76369838
  Ewald energy   TEWEN  =    -39063.53545954
  -Hartree energ DENC   =     -2906.36183478
  -exchange      EXHF   =      2020.31724585
  -V(xc)+E(xc)   XCENC  =      2381.27312340
  PAW double counting   =     97745.46334757   -97851.99714301
  entropy T*S    EENTRO =        -0.00000000
  eigenvalues    EBANDS =      -472.85889113
[...]
      0.88418      0.88800      0.88470         0.000889     -0.003845      0.000535
      0.88692      2.65942      2.65692         0.002024      0.000724     -0.000510
      2.65667      2.65956      0.88707         0.000225      0.000666     -0.000113
      3.54088      0.00441     10.63148         0.000895      0.000253      0.001554
      3.54087      1.77603      1.76820         0.002444     -0.001148     -0.000667
      5.31436      0.02479      1.74763        -0.031464      0.004857     -0.003034
      5.31729      1.77235      0.00013         0.000173     -0.001527      0.001532
      6.20336      0.88907      2.65387        -0.005300     -0.002213     -0.002776
      4.43014      0.89735      0.87514         0.006421      0.003835     -0.001969
      4.43110      2.65529      2.65340        -0.000791      0.001989     -0.006785
      6.20451      2.64688      0.87472        -0.010029     -0.001794     -0.001179
      7.09356      0.00417      0.00418        -0.001304      0.000121     -0.002947
      7.09365      1.76836      1.76824        -0.003224      0.000331      0.002667
      8.86146     10.63395      1.77354         0.000495      0.001581     -0.000476
      8.86394      1.77229      0.00031         0.001162     -0.001709     -0.000827
      9.74751      0.88502      2.65703        -0.001462     -0.002892      0.003980
      7.97797      0.88502      0.88749        -0.003937     -0.002858      0.001441
      7.98349      2.64763      2.65151        -0.001117     -0.003103      0.001104
      9.75033      2.65676      0.88467        -0.000164      0.000789      0.000102
     10.63480      3.54319      0.00020         0.003596     -0.001054     -0.003613
      0.00362      5.31338      1.76805        -0.002104      0.003194      0.002616
      1.77276      3.54530      1.77296         0.000393     -0.001448     -0.002129
      1.76786      5.31359      0.00322         0.001149      0.000156     -0.004853
      2.66071      4.43308      2.66022        -0.003163     -0.001328     -0.000641
      0.88702      4.42922      0.88703         0.001952     -0.001396     -0.000093
      0.88288      6.20358      2.65333         0.002697     -0.001253     -0.004889
      2.65303      6.20354      0.88193        -0.006707      0.002096      0.000577
      3.54103      3.54044      0.00317         0.000202      0.000048     -0.003173
      3.54435      5.31678      1.76936         0.010713      0.011467      0.020268
      5.31989      3.51904      1.74642         0.027095     -0.002979     -0.000380
      5.31736      5.31393     10.63427         0.002332      0.001382     -0.000395
      6.20854      4.37998      2.60753        -0.068690     -0.014073     -0.010324
      4.43101      4.42551      0.88188         0.002845     -0.007187      0.000650
      4.43731      6.20969      2.64409        -0.000420      0.000970      0.017138
      6.20760      6.19934      0.87855         0.002699     -0.000833      0.000759
      7.09371      3.54019     10.63119        -0.000372      0.002375      0.004293
      7.10236      5.30420      1.74784        -0.007406      0.008663      0.032339
      8.86673      3.54031      1.76828         0.001786     -0.001523     -0.001786
      8.86695      5.31338     10.63138        -0.002624      0.003193      0.002121
      9.75957      4.42345      2.65152         0.001568      0.001160     -0.001818
      7.98348      4.42345      0.87543         0.001841      0.001118     -0.001611
      8.02631      6.19735      2.60869         0.010388      0.088605     -0.010337
      9.75994      6.20264      0.87506         0.003300      0.006284     -0.003300
     10.63486      7.08985      0.00014        -0.001544     -0.000057      0.001537
     10.63088      8.86615      1.76839         0.001424     -0.002440      0.000294
      1.74667      7.09239      1.74648        -0.003158      0.028170      0.001457
      1.76771      8.86625     10.63131         0.001058      0.000786      0.003803
      2.60773      7.98102      2.60771        -0.014863     -0.070372     -0.010064
      0.87444      7.97703      0.87483        -0.002975     -0.009975     -0.001495
      0.87523      9.75604      2.65167        -0.004835     -0.003879     -0.002173
      2.65101      9.75597      0.87559        -0.000580      0.002654     -0.002082
      3.54139      7.08995     10.63433         0.001059      0.000437     -0.000327
      3.53183      8.87481      1.74806         0.006867     -0.007745      0.030416
      5.31671      7.08924      1.76098         0.002344      0.000167     -0.016267
      5.31721      8.86580     10.63483         0.000235     -0.001895      0.001385
      6.19484      7.96723      2.64807         0.012919      0.013292     -0.001104
      4.42680      7.98015      0.87862         0.000745      0.001744      0.000525
      4.42499      9.79853      2.60895         0.088924      0.012014     -0.011416
      6.20329      9.75348      0.88340        -0.004271      0.006289      0.000776
      7.09323      7.08980     10.63478        -0.000823     -0.001713      0.001287
      7.08897      8.86144      1.77227        -0.003295     -0.005180      0.004948
      8.88748      7.08676      1.74752         0.002133     -0.028280     -0.002125
      8.86661      8.86615      0.00412        -0.000292     -0.002453     -0.001452
      9.75164      7.97576      2.65400        -0.000832     -0.003107     -0.006975
      7.98100      7.97576      0.88336         0.007085     -0.003113      0.000795
      7.97342      9.74580      2.66158        -0.001262      0.000988      0.001339
      9.74747      9.75050      0.88753        -0.001098     -0.004367      0.001106
     10.63082      0.00417      3.54144         0.002903      0.000164      0.001242
     10.63487      1.77235      5.31771        -0.001560     -0.001531     -0.000197
      1.74658      0.02603      5.31523        -0.003699      0.000920     -0.029126
      1.76777      1.77626      3.54133         0.000120     -0.004914     -0.000490
      2.65287      0.89060      6.20411        -0.003982     -0.000542     -0.003772
      0.87441      0.89770      4.43050        -0.002176      0.002476      0.012960
      0.87489      2.64741      6.20478        -0.000204      0.000880     -0.009573
      2.65328      2.65563      4.43129        -0.004108      0.001402     -0.001133
      3.53175      0.02437      3.53277         0.008226     -0.029023      0.007784
      3.54136      1.77305      5.31764         0.001789      0.002290     -0.001128
      5.31667      0.01148      5.31833         0.000641      0.014417     -0.000627
      5.31721      1.77250      3.54172         0.001347      0.000510      0.001606
      6.20760      0.89376      6.20829         0.002045      0.000466     -0.003300
      4.42671      0.89376      4.42740         0.003270      0.000460     -0.002010
      4.42722      2.65228      6.20778         0.003629      0.002374     -0.003640
      6.20776      2.65171      4.42724        -0.001246      0.000838      0.001290
      7.08905      0.00015      3.54595        -0.006099     -0.003006      0.005977
      7.09328      1.77250      5.31779        -0.001645      0.000518     -0.001335
      8.88737      0.02479      5.32064         0.003122      0.004950      0.031478
      8.86676      1.76836      3.54135        -0.002617      0.000298      0.003173
      9.75986      0.89735      6.20486         0.001878      0.003726     -0.006520
      7.98113      0.88907      4.43164         0.002815     -0.002225      0.005411
      7.98160      2.65529      6.20390         0.006791      0.001991      0.000695
      9.76028      2.64688      4.43049         0.001098     -0.001736      0.010126
      0.00381      3.54019      3.54129        -0.004272      0.002333      0.000312
      0.00073      5.31393      5.31764         0.000393      0.001317     -0.002315
      1.74726      3.51969      5.32011         0.003264      0.005238      0.030292
      1.77180      5.31732      3.54483        -0.003470      0.012898      0.009077
      2.60967      4.38211      6.20779        -0.019001     -0.017985     -0.056924
      0.88318      4.42569      4.43124         0.002164     -0.002626     -0.000938
      0.87996      6.19979      6.20785         0.000256      0.001931     -0.005344
      2.64787      6.21079      4.43799        -0.004720     -0.017436     -0.016417
      3.54500      3.54425      3.54496         0.007658     -0.003153      0.004403
      3.48774      5.26026      5.35015        -0.083397     -0.080642      0.084061
      5.31770      3.53533      5.31730         0.001880     -0.021053     -0.001839
      5.34902      5.25819      3.48404         0.107103     -0.122167     -0.087750
      6.19701      4.42040      6.19661         0.014879     -0.006485      0.017243
      4.43839      4.42040      4.43799        -0.017237     -0.006498     -0.014860
      4.17554      5.94850      6.45946         0.212025      0.208327     -0.212254
      6.46567      5.93779      4.16933        -0.229027      0.320223      0.229289
      7.10266      3.52033      3.53235        -0.007129      0.030261      0.007109
      7.15096      5.25819      5.28598         0.087536     -0.122114     -0.107232
      8.88858      3.51904      5.31511         0.000437     -0.003044     -0.027102
      8.88716      5.30420      3.53264        -0.032345      0.008627      0.007344
      9.75312      4.42551      6.20400        -0.000696     -0.007098     -0.002943
      8.02747      4.37998      4.42646         0.010325     -0.014034      0.068747
      7.99091      6.20969      6.19769        -0.017103      0.000981      0.000392
      9.75645      6.19934      4.42740        -0.000749     -0.000803     -0.002640
      0.00022      7.08980      3.54177        -0.001300     -0.001693      0.000716
      0.00017      8.86580      5.31779        -0.001389     -0.001845     -0.000252
      1.76294      7.09026      5.31735        -0.020883      0.001242     -0.000196
      1.74813      8.87522      3.53244         0.025988     -0.009260      0.008039
      2.64779      7.96967      6.19689        -0.004047      0.013319      0.015072
      0.87946      7.98037      4.42727        -0.001538     -0.003795      0.001155
      0.88282      9.75420      6.20400         0.001303      0.005581      0.000630
      2.60763      9.79986      4.42667        -0.013611      0.009496      0.068609
      3.48591      7.12134      3.48427        -0.122586      0.108303     -0.085406
      3.48580      8.92335      5.28637        -0.119634      0.083391     -0.108251
      5.28388      8.92017      3.48735        -0.153273      0.138947     -0.137841
      6.46487      8.23761      6.46933        -0.234169     -0.232481     -0.329447
      4.16567      8.23761      4.17012         0.329167     -0.232487      0.234483
      4.43708      9.76347      6.19792         0.002078     -0.018743     -0.002106
      6.19479      9.75944      4.44021         0.014259     -0.000044     -0.014252
      7.14798      7.05616      3.48703         0.140183     -0.148484     -0.140325
      7.14765      8.92017      5.35112         0.137633      0.138913      0.153461
      8.87402      7.08924      5.31829         0.016285      0.000159     -0.002343
      8.86273      8.86144      3.54603        -0.004861     -0.005156      0.003163
      9.75637      7.98015      6.20820        -0.000503      0.001753     -0.000793
      7.98693      7.96723      4.44016         0.001180      0.013273     -0.012894
      8.02605      9.79853      6.21001         0.011481      0.012016     -0.088975
      9.75160      9.75348      4.43171        -0.000814      0.006216      0.004363
      0.00352      0.00441      7.09412        -0.001512      0.000287     -0.000828
     10.63477      1.77245      8.86438         0.003479      0.001126      0.001216
      1.77266     10.63463      8.86234         0.000304      0.003298     -0.000315
      1.76782      1.76942      7.09399         0.000888      0.001568      0.000327
      2.65664      0.88558      9.74807        -0.000969     -0.001276     -0.001754
      0.88693      0.88558      7.97836         0.001784     -0.001300      0.000928
      0.88433      2.65692      9.75067         0.003121      0.003476     -0.003086
      2.65157      2.64883      7.98343        -0.000345     -0.001724      0.000308
      3.54418      0.00314      7.09082         0.011251     -0.017026     -0.011119
      3.54101      1.76942      8.86718        -0.000261      0.001596     -0.000904
      5.31977      0.02603      8.88842         0.029140      0.000823      0.003601
      5.31736      1.77305      7.09364         0.001142      0.002308     -0.001739
      6.20450      0.89770      9.76059        -0.012878      0.002568      0.002246
      4.43089      0.89060      7.98213         0.003685     -0.000548      0.003936
      4.43022      2.64741      9.76011         0.009500      0.000776      0.000306
      6.20371      2.65563      7.98172         0.001217      0.001401      0.004069
      7.10223      0.02437      7.10325        -0.007830     -0.029017     -0.008192
      7.09367      1.77626      8.86723         0.000440     -0.004919     -0.000144
      8.86667      0.00428      8.86722         0.001408      0.001361      0.001716
      8.86680      1.77603      7.09413         0.000695     -0.001127     -0.002389
      9.75031      0.88800      9.75082        -0.000585     -0.003851     -0.000852
      7.98332      0.89690      7.98405         0.005211      0.004197     -0.002945
      7.97808      2.65942      9.74808         0.000531      0.000717     -0.001996
      9.74793      2.65956      7.97833         0.000088      0.000684     -0.000255
     10.63183      3.54044      7.09397         0.003130      0.000008     -0.000140
     10.63178      5.31359      8.86714         0.004816      0.000150     -0.001123
      1.76819      3.54077      8.86681         0.000982      0.001580     -0.000989
      1.74947      5.30539      7.10220         0.026443      0.009563     -0.008843
      2.65150      4.42416      9.75872         0.003331     -0.002001      0.003181
      0.87628      4.42416      7.98350        -0.003116     -0.001977     -0.003402
      0.87485      6.20272      9.76015        -0.001081      0.012202      0.001083
      2.60946      6.19979      8.02554        -0.016166      0.056474      0.016122
      3.53292      3.52190      7.10208         0.007095      0.028798     -0.007048
      3.53280      5.30539      8.88553         0.008929      0.009620     -0.026480
      5.31489      3.51968      8.88774        -0.030269      0.005325     -0.003359
      5.28485      5.26026      7.14726        -0.083891     -0.080677      0.083554
      6.20376      4.42569      9.75182         0.001038     -0.002691     -0.002168
      4.42721      4.38211      8.02534         0.056932     -0.018011      0.018972
      4.42716      6.19979      9.75504         0.005303      0.001916     -0.000311
      6.19701      6.21079      7.98713         0.016461     -0.017486      0.004658
      7.09005      3.54425      7.09000        -0.004519     -0.003129     -0.007557
      7.09017      5.31732      8.86320        -0.009240      0.012920      0.003406
      8.86204      3.54530      8.86224         0.002128     -0.001455     -0.000377
      8.86564      5.31678      7.09065        -0.020220      0.011439     -0.010592
      9.74797      4.42922      9.74798         0.000089     -0.001397     -0.001941
      7.97478      4.43308      7.97429         0.000660     -0.001314      0.003076
      7.98167      6.20358      9.75212         0.004976     -0.001244     -0.002691
      9.75307      6.20354      7.98198        -0.000610      0.002112      0.006606
      0.00067      7.08995      7.09361         0.000333      0.000421     -0.000954
      0.00369      8.86625      8.86729        -0.003783      0.000797     -0.001041
      1.74709      7.08740      8.88791         0.005620     -0.029100     -0.005621
      1.77170      8.86273      7.09021        -0.004671     -0.008770     -0.009852
      2.65315      7.97629      9.75189        -0.003672      0.002397     -0.000701
      0.88311      7.97629      7.98185         0.000691      0.002401      0.003580
      0.88683      9.75065      9.74817         0.001579      0.001293     -0.001587
      2.66052      9.74734      7.97448        -0.002444      0.002299      0.002373
      3.48752      7.05751      7.14748        -0.080483     -0.080278      0.080651
      3.54479      8.86273      8.86330         0.009999     -0.008810      0.004608
      5.31765      7.09026      8.87206         0.000181      0.001232      0.020849
      5.34864      8.92335      7.14920         0.108077      0.083493      0.119868
      6.20773      7.98037      9.75554        -0.001088     -0.003799      0.001504
      4.43811      7.96967      7.98721        -0.015117      0.013316      0.003993
      4.43100      9.75420      9.75218        -0.000725      0.005659     -0.001287
      6.20833      9.79986      8.02737        -0.068617      0.009560      0.013594
      7.15073      7.12134      7.14909         0.085260      0.108298      0.122723
      7.10256      8.87521      8.88687        -0.008089     -0.009311     -0.026012
      8.88852      7.09239      8.88833        -0.001477      0.028192      0.003166
      8.88694      8.87481      7.10317        -0.030399     -0.007729     -0.006769
      9.76017      7.97703      9.76056         0.001497     -0.009996      0.002959
      8.02729      7.98101      8.02727         0.010131     -0.070384      0.014810
      7.98333      9.75604      9.75977         0.002224     -0.003837      0.004859
      9.75941      9.75597      7.98399         0.002044      0.002631      0.000528
      5.33293      7.10384      5.30206        -0.097371     -0.076848      0.097477
 -----------------------------------------------------------------------------------
    total drift:                                0.000600      0.001392     -0.000565


--------------------------------------------------------------------------------------------------------



  FREE ENERGIE OF THE ION-ELECTRON SYSTEM (eV)
  ---------------------------------------------------
  free  energy   TOTEN  =     -2261.95835004 eV

  energy  without entropy=    -2261.95835004  energy(sigma->0) =    -2261.95835004
 


--------------------------------------------------------------------------------------------------------


    POTLOK:  cpu time    0.8484: real time    0.8484


--------------------------------------------------------------------------------------------------------


 writing wavefunctions
     LOOP+:  cpu time 8249.5587: real time 8276.8679
    4ORBIT:  cpu time    0.0000: real time    0.0000

 total amount of memory used by VASP MPI-rank0   128495. kBytes
=======================================================================

   base      :      30000. kBytes
   nonl-proj :       4856. kBytes
   fftplans  :       5586. kBytes
   grid      :      13063. kBytes
   one-center:       1327. kBytes
   HF        :         73. kBytes
   nonlr-proj:        908. kBytes
   wavefun   :      28125. kBytes
   fock_wrk  :      44557. kBytes
 
  
  
 General timing and accounting informations for this job:
 ========================================================
  
                  Total CPU time used (sec):     8280.179
                            User time (sec):     8271.062
                          System time (sec):        9.117
                         Elapsed time (sec):     8309.694
  
                   Maximum memory used (kb):      765144.
                   Average memory used (kb):          N/A
  
                          Minor page faults:      1886993
                          Major page faults:            2
                 Voluntary context switches:        12828
