 vasp.6.2.1 16May21 (build Sep 27 2021 21:11:04) gamma-only                     
  
 executed on             LinuxIFC date 2023.05.04  08:55:05
 running   24 mpi-ranks, with    1 threads/rank
 distrk:  each k-point on   24 cores,    1 groups
 distr:  one band on NCORE=   8 cores,    3 groups


--------------------------------------------------------------------------------------------------------


 INCAR:
   GGA = PE
   ISTART = 1
   ISPIN = 2
   ENCUT = 370
   ENAUG = 740
   EDIFF = 1E-5
   IBRION = 2
   POTIM = 0.2
   ALGO = All
   NSW = 0
   EDIFFG = -1E-4
   ISMEAR = 0
   SIGMA = 0.01
   ISIF = 2
   LREAL = .FALSE.
   ISYM = 0
   PREC = Accurate
   NCORE = 8
   NELM = 60
   NWRITE = 2
   SYMPREC = 1.0e-8
   LDAU = .TRUE.
   LDAUTYPE = 1
   LDAUL = 3
   LDAUU = 7
   LDAUJ = 1
   LDAUPRINT = 2
   LMAXMIX = 6

 POTCAR:    PAW_PBE Pr 23Dec2003                  
 -----------------------------------------------------------------------------
|                                                                             |
|           W    W    AA    RRRRR   N    N  II  N    N   GGGG   !!!           |
|           W    W   A  A   R    R  NN   N  II  NN   N  G    G  !!!           |
|           W    W  A    A  R    R  N N  N  II  N N  N  G       !!!           |
|           W WW W  AAAAAA  RRRRR   N  N N  II  N  N N  G  GGG   !            |
|           WW  WW  A    A  R   R   N   NN  II  N   NN  G    G                |
|           W    W  A    A  R    R  N    N  II  N    N   GGGG   !!!           |
|                                                                             |
|     You use a magnetic or noncollinear calculation, but did not specify     |
|     the initial magnetic moment with the MAGMOM tag. Note that a            |
|     default of 1 will be used for all atoms. This ferromagnetic setup       |
|     may break the symmetry of the crystal, in particular it may rule        |
|     out finding an antiferromagnetic solution. Thence, we recommend         |
|     setting the initial magnetic moment manually or verifying carefully     |
|     that this magnetic setup is desired.                                    |
|                                                                             |
 -----------------------------------------------------------------------------

 POTCAR:    PAW_PBE Pr 23Dec2003                  
   SHA256 =  ebcd8a6c43bbf830c2eab3f7188f0d0e53e8e155a05b1bfc11640602897f077e Pr/POTCAR             
   COPYR  = (c) Copyright 23Dec2003 Georg Kresse                                                    
   COPYR  = This file is part of the software VASP. Any use, copying, and all other rights are regul
   COPYR  = If you do not have a valid VASP license, you may not use, copy or distribute this file. 
   VRHFIN =Pr : [core=Xe4]                                                                          
   LEXCH  = PE                                                                                      
   EATOM  =  1294.6665 eV,   95.1553 Ry                                                             
                                                                                                    
   TITEL  = PAW_PBE Pr 23Dec2003                                                                    
   LULTRA =        F    use ultrasoft PP ?                                                          
   IUNSCR =        1    unscreen: 0-lin 1-nonlin 2-no                                               
   RPACOR =    2.300    partial core radius                                                         
   POMASS =  140.907; ZVAL   =   13.000    mass and valenz                                          
   RCORE  =    2.700    outmost cutoff radius                                                       
   RWIGS  =    2.800; RWIGS  =    1.482    wigner-seitz radius (au A)                               
   ENMAX  =  272.941; ENMIN  =  204.706 eV                                                          
   RCLOC  =    1.903    cutoff for local pot                                                        
   LCOR   =        T    correct aug charges                                                         
   LPAW   =        T    paw PP                                                                      
   EAUG   =  578.020                                                                                
   DEXC   =    0.000                                                                                
   RMAX   =    2.755    core radius for proj-oper                                                   
   RAUG   =    1.300    factor for augmentation sphere                                              
   RDEP   =    2.816    radius for radial grids                                                     
   RDEPT  =    2.166    core radius for aug-charge                                                  
                                                                                                    
   Atomic configuration                                                                             
   14 entries                                                                                       
     n  l   j            E        occ.                                                              
     1  0  0.50    -41810.3934   2.0000                                                             
     2  0  0.50     -6731.1418   2.0000                                                             
     2  1  1.50     -6022.4876   6.0000                                                             
     3  0  0.50     -1458.2043   2.0000                                                             
     3  1  1.50     -1233.8862   6.0000                                                             
     3  2  2.50      -919.2566  10.0000                                                             
     4  0  0.50      -295.2681   2.0000                                                             
     4  1  1.50      -221.8430   6.0000                                                             
     4  2  2.50      -116.8418  10.0000                                                             
     5  0  0.50       -42.1589   2.0000                                                             
     6  0  0.50        -3.8068   2.0000                                                             
     5  1  1.50       -23.9655   6.0000                                                             
     5  2  2.50        -3.0008   1.0000                                                             
     4  3  2.50        -6.2311   2.0000                                                             
   Description                                                                                      
     l       E           TYP  RCUT    TYP  RCUT                                                     
     0    -42.1589404     23  1.550                                                                 
     0     -3.8068341     23  2.300                                                                 
     1    -23.9655292     23  2.400                                                                 
     1     27.2116520     23  2.400                                                                 
     2     -3.0008130     23  2.500                                                                 
     2     13.6058260     23  2.500                                                                 
     3     -6.2311419     23  2.700                                                                 
     3     -6.8029130     23  2.700                                                                 
  local pseudopotential read in
  partial core-charges read in
  partial kinetic energy density read in
  atomic valenz-charges read in
  non local Contribution for L=           0  read in
    real space projection operators read in
  non local Contribution for L=           0  read in
    real space projection operators read in
  non local Contribution for L=           1  read in
    real space projection operators read in
  non local Contribution for L=           1  read in
    real space projection operators read in
  non local Contribution for L=           2  read in
    real space projection operators read in
  non local Contribution for L=           2  read in
    real space projection operators read in
  non local Contribution for L=           3  read in
    real space projection operators read in
  non local Contribution for L=           3  read in
    real space projection operators read in
    PAW grid and wavefunctions read in
 
   number of l-projection  operators is LMAX  =           8
   number of lm-projection operators is LMMAX =          32
 
  PAW_PBE Pr 23Dec2003                  :
 energy of atom  1       EATOM=-1294.6665
 kinetic energy error for atom=    0.0274 (will be added to EATOM!!)
 
 
 POSCAR: Pr6
  positions in direct lattice
  velocities in cartesian coordinates
 exchange correlation table for  LEXCH =        8
   RHO(1)=    0.500       N(1)  =     2000
   RHO(2)=  100.500       N(2)  =     4000
 


--------------------------------------------------------------------------------------------------------


 ion  position               nearest neighbor table
   1  0.801  0.643  0.515-   5 2.97
   2  0.206  0.258  0.930-   6 2.67   4 3.46
   3  0.118  0.247  0.350-
   4  0.618  0.388  0.756-   6 1.38   6 2.58   5 2.73   5 2.76   5 2.81   6 3.25   2 3.46   6 3.49

   5  0.953  0.039  0.662-   6 2.67   4 2.73   4 2.76   4 2.81   1 2.97   6 3.29
   6  0.304  0.426  0.787-   4 1.38   4 2.58   5 2.67   2 2.67   4 3.25   5 3.29   4 3.49
 
 -----------------------------------------------------------------------------
|                                                                             |
|           W    W    AA    RRRRR   N    N  II  N    N   GGGG   !!!           |
|           W    W   A  A   R    R  NN   N  II  NN   N  G    G  !!!           |
|           W    W  A    A  R    R  N N  N  II  N N  N  G       !!!           |
|           W WW W  AAAAAA  RRRRR   N  N N  II  N  N N  G  GGG   !            |
|           WW  WW  A    A  R   R   N   NN  II  N   NN  G    G                |
|           W    W  A    A  R    R  N    N  II  N    N   GGGG   !!!           |
|                                                                             |
|     The distance between some ions is very small. Please check the          |
|     nearest-neighbor list in the OUTCAR file.                               |
|     I HOPE YOU KNOW WHAT YOU ARE DOING!                                     |
|                                                                             |
 -----------------------------------------------------------------------------


IMPORTANT INFORMATION: All symmetrisations will be switched off!
NOSYMM: (Re-)initialisation of all symmetry stuff for point group C_1.


----------------------------------------------------------------------------------------

                                     Primitive cell                                     

  volume of cell :     223.6880

  direct lattice vectors                    reciprocal lattice vectors
     1.882736988 -3.260996120  0.000000000     0.265570817 -0.153327383  0.000000000
     1.882736988  3.260996120  0.000000000     0.265570817  0.153327383  0.000000000
     0.000000000  0.000000000 18.216826690     0.000000000  0.000000000  0.054894303

  length of vectors
     3.765473976  3.765473976 18.216826690     0.306654765  0.306654765  0.054894303

  position of ions in fractional coordinates (direct lattice)
     0.800906532  0.642927706  0.515255788
     0.205783663  0.257883264  0.930152141
     0.118266436  0.246605855  0.349823398
     0.617723719  0.387787241  0.756097218
     0.952985196  0.038849724  0.661961938
     0.304334455  0.425946209  0.786709517

  ion indices of the primitive-cell ions
   primitive index   ion index
                 1           1
                 2           2
                 3           3
                 4           4
                 5           5
                 6           6

----------------------------------------------------------------------------------------

 
 
 KPOINTS: 1 x 1 x 1 k-mesh (automatic generation o

Automatic generation of k-mesh.
 Grid dimensions read from file:
 generate k-points for:    1    1    1

 Generating k-lattice:

  Cartesian coordinates                     Fractional coordinates (reciprocal lattice)
     0.265570817 -0.153327383  0.000000000     1.000000000  0.000000000  0.000000000
     0.265570817  0.153327383  0.000000000     0.000000000  1.000000000  0.000000000
     0.000000000  0.000000000  0.054894303     0.000000000  0.000000000  1.000000000

  Length of vectors
     0.306654765  0.306654765  0.054894303

  Shift w.r.t. Gamma in fractional coordinates (k-lattice)
     0.000000000  0.000000000  0.000000000

 
 Subroutine IBZKPT returns following result:
 ===========================================
 
 Found      1 irreducible k-points:
 
 Following reciprocal coordinates:
            Coordinates               Weight
  0.000000  0.000000  0.000000      1.000000
 
 Following cartesian coordinates:
            Coordinates               Weight
  0.000000  0.000000  0.000000      1.000000
 


--------------------------------------------------------------------------------------------------------




 Dimension of arrays:
   k-points           NKPTS =      1   k-points in BZ     NKDIM =      1   number of bands    NBANDS=     51
   number of dos      NEDOS =    301   number of ions     NIONS =      6
   non local maximal  LDIM  =      8   non local SUM 2l+1 LMDIM =     32
   total plane-waves  NPLWV =  69120
   max r-space proj   IRMAX =      1   max aug-charges    IRDMAX=  16577
   dimension x,y,z NGX =    24 NGY =   24 NGZ =  120
   dimension x,y,z NGXF=    48 NGYF=   48 NGZF=  240
   support grid    NGXF=    48 NGYF=   48 NGZF=  240
   ions per type =               6
   NGX,Y,Z   is equivalent  to a cutoff of  10.60, 10.60, 10.95 a.u.
   NGXF,Y,Z  is equivalent  to a cutoff of  21.19, 21.19, 21.90 a.u.

 SYSTEM =  unknown system                          
 POSCAR =  Pr6                                     

 Startparameter for this run:
   NWRITE =      2    write-flag & timer
   PREC   = accura    normal or accurate (medium, high low for compatibility)
   ISTART =      1    job   : 0-new  1-cont  2-samecut
   ICHARG =      0    charge: 1-file 2-atom 10-const
   ISPIN  =      2    spin polarized calculation?
   LNONCOLLINEAR =      F non collinear calculations
   LSORBIT =      F    spin-orbit coupling
   INIWAV =      1    electr: 0-lowe 1-rand  2-diag
   LASPH  =      F    aspherical Exc in radial PAW
 Electronic Relaxation 1
   ENCUT  =  370.0 eV  27.19 Ry    5.21 a.u.   5.91  5.91 28.57*2*pi/ulx,y,z
   ENINI  =  370.0     initial cutoff
   ENAUG  =  740.0 eV  augmentation charge cutoff
   NELM   =     60;   NELMIN=  2; NELMDL=  0     # of ELM steps 
   EDIFF  = 0.1E-04   stopping-criterion for ELM
   LREAL  =      F    real-space projection
   NLSPLINE    = F    spline interpolate recip. space projectors
   LCOMPAT=      F    compatible to vasp.4.4
   GGA_COMPAT  = T    GGA compatible to vasp.4.4-vasp.4.6
   LMAXPAW     = -100 max onsite density
   LMAXMIX     =    6 max onsite mixed and CHGCAR
   VOSKOWN=      0    Vosko Wilk Nusair interpolation
   ROPT   =    0.00000
 Ionic relaxation
   EDIFFG = -.1E-03   stopping-criterion for IOM
   NSW    =      0    number of steps for IOM
   NBLOCK =      1;   KBLOCK =      1    inner block; outer block 
   IBRION =     -1    ionic relax: 0-MD 1-quasi-New 2-CG
   NFREE  =      1    steps in history (QN), initial steepest desc. (CG)
   ISIF   =      2    stress and relaxation
   IWAVPR =     10    prediction:  0-non 1-charg 2-wave 3-comb
   ISYM   =      0    0-nonsym 1-usesym 2-fastsym
   LCORR  =      T    Harris-Foulkes like correction to forces

   POTIM  = 0.2000    time-step for ionic-motion
   TEIN   =    0.0    initial temperature
   TEBEG  =    0.0;   TEEND  =   0.0 temperature during run
   SMASS  =  -3.00    Nose mass-parameter (am)
   estimated Nose-frequenzy (Omega)   =  0.10E-29 period in steps = 0.31E+47 mass=  -0.324E-27a.u.
   SCALEE = 1.0000    scale energy and forces
   NPACO  =    256;   APACO  = 16.0  distance and # of slots for P.C.
   PSTRESS=    0.0 pullay stress

  Mass of Ions in am
   POMASS = 140.91
  Ionic Valenz
   ZVAL   =  13.00
  Atomic Wigner-Seitz radii
   RWIGS  =  -1.00
  virtual crystal weights 
   VCA    =   1.00
   NELECT =      78.0000    total number of electrons
   NUPDOWN=      -1.0000    fix difference up-down

 DOS related values:
   EMIN   =  10.00;   EMAX   =-10.00  energy-range for DOS
   EFERMI =   0.00
   ISMEAR =     0;   SIGMA  =   0.01  broadening in eV -4-tet -1-fermi 0-gaus

 Electronic relaxation 2 (details)
   IALGO  =     58    algorithm
   LDIAG  =      T    sub-space diagonalisation (order eigenvalues)
   LSUBROT=      F    optimize rotation matrix (better conditioning)
   TURBO    =      0    0=normal 1=particle mesh
   IRESTART =      0    0=no restart 2=restart with 2 vectors
   NREBOOT  =      0    no. of reboots
   NMIN     =      0    reboot dimension
   EREF     =   0.00    reference energy to select bands
   IMIX   =      4    mixing-type and parameters
     AMIX     =   0.40;   BMIX     =  1.00
     AMIX_MAG =   1.60;   BMIX_MAG =  1.00
     AMIN     =   0.10
     WC   =   100.;   INIMIX=   1;  MIXPRE=   1;  MAXMIX= -45

 Intra band minimization:
   WEIMIN = 0.0000     energy-eigenvalue tresh-hold
   EBREAK =  0.49E-07  absolut break condition
   DEPER  =   0.30     relativ break condition  

   TIME   =   0.40     timestep for ELM

  volume/ion in A,a.u.               =      37.28       251.59
  Fermi-wavevector in a.u.,A,eV,Ry     =   1.152282  2.177497 18.065190  1.327754
  Thomas-Fermi vector in A             =   2.288934
 
 Write flags
   LWAVE        =      T    write WAVECAR
   LDOWNSAMPLE  =      F    k-point downsampling of WAVECAR
   LCHARG       =      T    write CHGCAR
   LVTOT        =      F    write LOCPOT, total local potential
   LVHAR        =      F    write LOCPOT, Hartree potential only
   LELF         =      F    write electronic localiz. function (ELF)
   LORBIT       =      0    0 simple, 1 ext, 2 COOP (PROOUT), +10 PAW based schemes


 Dipole corrections
   LMONO  =      F    monopole corrections only (constant potential shift)
   LDIPOL =      F    correct potential (dipole corrections)
   IDIPOL =      0    1-x, 2-y, 3-z, 4-all directions 
   EPSILON=  1.0000000 bulk dielectric constant

 LDA+U is selected, type is set to LDAUTYPE =  1
   angular momentum for each species LDAUL =     3
   U (eV)           for each species LDAUU =   7.0
   J (eV)           for each species LDAUJ =   1.0
 Exchange correlation treatment:
   GGA     =    PE    GGA type
   LEXCH   =     8    internal setting for exchange type
   VOSKOWN=      0    Vosko Wilk Nusair interpolation
   LHFCALC =     F    Hartree Fock is set to
   LHFONE  =     F    Hartree Fock one center treatment
   AEXX    =    0.0000 exact exchange contribution

 Linear response parameters
   LEPSILON=     F    determine dielectric tensor
   LRPA    =     F    only Hartree local field effects (RPA)
   LNABLA  =     F    use nabla operator in PAW spheres
   LVEL    =     F    velocity operator in full k-point grid
   LINTERFAST=   F  fast interpolation
   KINTER  =     0    interpolate to denser k-point grid
   CSHIFT  =0.1000    complex shift for real part using Kramers Kronig
   OMEGAMAX=  -1.0    maximum frequency
   DEG_THRESHOLD= 0.2000000E-02 threshold for treating states as degnerate
   RTIME   =   -0.100 relaxation time in fs
  (WPLASMAI=    0.000 imaginary part of plasma frequency in eV, 0.658/RTIME)
   DFIELD  = 0.0000000 0.0000000 0.0000000 field for delta impulse in time
 
 Orbital magnetization related:
   ORBITALMAG=     F  switch on orbital magnetization
   LCHIMAG   =     F  perturbation theory with respect to B field
   DQ        =  0.001000  dq finite difference perturbation B field
   LLRAUG    =     F  two centre corrections for induced B field



--------------------------------------------------------------------------------------------------------


 Static calculation
 charge density and potential will be updated during run
 spin polarized calculation
 Conjugate gradient for all bands (Freysoldt, et al. PRB 79, 241103 (2009))
 preconditioned conjugated gradient                                        
 perform sub-space diagonalisation
    before iterative eigenvector-optimisation
 modified Broyden-mixing scheme, WC =      100.0
 initial mixing is a Kerker type mixing with AMIX =  0.4000 and BMIX =      1.0000
 Hartree-type preconditioning will be used
 using additional bands           12
 reciprocal scheme for non local part
 use partial core corrections
 no Harris-corrections to forces 
 use gradient corrections 
 use of overlap-Matrix (Vanderbilt PP)
 Gauss-broadening in eV      SIGMA  =   0.01


--------------------------------------------------------------------------------------------------------


  energy-cutoff  :      370.00
  volume of cell :      223.69
      direct lattice vectors                 reciprocal lattice vectors
     1.882736988 -3.260996120  0.000000000     0.265570817 -0.153327383  0.000000000
     1.882736988  3.260996120  0.000000000     0.265570817  0.153327383  0.000000000
     0.000000000  0.000000000 18.216826690     0.000000000  0.000000000  0.054894303

  length of vectors
     3.765473976  3.765473976 18.216826690     0.306654765  0.306654765  0.054894303


 
 old parameters found on file WAVECAR:
  energy-cutoff  :      370.00
  volume of cell :       48.92
      direct lattice vectors                 reciprocal lattice vectors
     3.929586879  0.000000000  0.000000000     0.254479677 -0.000000000  0.000000000
     0.000000000  3.929586879  0.000000000     0.000000000  0.254479677  0.000000000
     0.000000000  0.000000000  3.168102643    -0.000000000 -0.000000000  0.315646339

  length of vectors

 
 k-points in units of 2pi/SCALE and weight: 1 x 1 x 1 k-mesh (automatic generation o
   0.00000000  0.00000000  0.00000000       1.000
 
 k-points in reciprocal lattice and weights: 1 x 1 x 1 k-mesh (automatic generation o
   0.00000000  0.00000000  0.00000000       1.000
 
 position of ions in fractional coordinates (direct lattice) 
   0.80090653  0.64292771  0.51525579
   0.20578366  0.25788326  0.93015214
   0.11826644  0.24660586  0.34982340
   0.61772372  0.38778724  0.75609722
   0.95298520  0.03884972  0.66196194
   0.30433445  0.42594621  0.78670952
 
 position of ions in cartesian coordinates  (Angst):
   2.71836012 -0.51516834  9.38632540
   0.87296287  0.16989660 16.94442035
   0.68695856  0.41851435  6.37267221
   1.89311268 -0.74982196 13.77369198
   1.86736429 -2.98099223 12.05884590
   1.37492642  0.39657546 14.33135092
 


--------------------------------------------------------------------------------------------------------


 use parallel FFT for orbitals z direction half grid
 k-point   1 :   0.0000 0.0000 0.0000  plane waves:    1796

 maximum and minimum number of plane-waves per node :       227      221

 maximum number of plane-waves:      1796
 maximum index in each direction: 
   IXMAX=    5   IYMAX=    5   IZMAX=   28
   IXMIN=   -5   IYMIN=   -5   IZMIN=    0


 parallel 3D FFT for wavefunctions:
    minimum data exchange during FFTs selected (reduces bandwidth)
 parallel 3D FFT for charge:
    minimum data exchange during FFTs selected (reduces bandwidth)


 total amount of memory used by VASP MPI-rank0    33851. kBytes
=======================================================================

   base      :      30000. kBytes
   nonl-proj :         80. kBytes
   fftplans  :        960. kBytes
   grid      :       2363. kBytes
   one-center:         49. kBytes
   wavefun   :        399. kBytes
 
     INWAV:  cpu time    0.0126: real time    0.0129
 Broyden mixing: mesh for mixing (old mesh)
   NGX = 11   NGY = 11   NGZ = 57
  (NGX  = 48   NGY  = 48   NGZ  =240)
  gives a total of   6897 points

 charge density for first step will be calculated from the start-wavefunctions


--------------------------------------------------------------------------------------------------------


 Maximum index for augmentation-charges          690 (set IRDMAX)


--------------------------------------------------------------------------------------------------------


 initial charge from wavefunction
 First call to EWALD:  gamma=   0.292
 Maximum number of real-space cells 5x 5x 1
 Maximum number of reciprocal cells 2x 2x 7

    FEWALD:  cpu time    0.0014: real time    0.0014


--------------------------------------- Iteration      1(   1)  ---------------------------------------


    POTLOK:  cpu time    0.0236: real time    0.0237
atom =   1  type =  1  l = 3
 
 onsite density matrix
 
spin component  1
 
  0.2364  0.0205 -0.0242  0.0078  0.0093  0.0137  0.0025
  0.0205  0.1235  0.0337 -0.0186 -0.0044 -0.0170 -0.0147
 -0.0242  0.0337  0.1151 -0.0070 -0.0235  0.0237 -0.0058
  0.0078 -0.0186 -0.0070  0.1190  0.0139 -0.0111  0.0194
  0.0093 -0.0044 -0.0235  0.0139  0.2877 -0.0062 -0.1358
  0.0137 -0.0170  0.0237 -0.0111 -0.0062  0.0886  0.0149
  0.0025 -0.0147 -0.0058  0.0194 -0.1358  0.0149  0.2868
 
spin component  2
 
  0.2613 -0.0139  0.0144  0.0000 -0.0118 -0.0037  0.0012
 -0.0139  0.0818 -0.0181 -0.0003 -0.0202 -0.0044 -0.0184
  0.0144 -0.0181  0.1119  0.0019 -0.0235  0.0177 -0.0100
  0.0000 -0.0003  0.0019  0.1222 -0.0177  0.0045 -0.0152
 -0.0118 -0.0202 -0.0235 -0.0177  0.3022  0.0196 -0.1269
 -0.0037 -0.0044  0.0177  0.0045  0.0196  0.1222  0.0033
  0.0012 -0.0184 -0.0100 -0.0152 -0.1269  0.0033  0.2996
 
 occupancies and eigenvectors
 
  o =  0.0478  v = -0.1688  0.4606 -0.5313  0.2274 -0.0838  0.6407 -0.0889  0.0000  0.0000  0.0000  0.0000  0.0000  0.0000  0.0000      0.0000  0.0000  0.0000  0.0000  0.0000  0.0000  0.0000  0.0000  0.0000  0.0000  0.0000  0.0000  0.0000  0.0000
  o =  0.0594  v =  0.0000  0.0000  0.0000  0.0000  0.0000  0.0000  0.0000  0.0305  0.7834  0.4732  0.1273  0.2531 -0.1765  0.2237      0.0000  0.0000  0.0000  0.0000  0.0000  0.0000  0.0000  0.0000  0.0000  0.0000  0.0000  0.0000  0.0000  0.0000
  o =  0.0985  v =  0.0000  0.0000  0.0000  0.0000  0.0000  0.0000  0.0000  0.0933  0.5322 -0.4773 -0.2293 -0.1318  0.6346 -0.0867      0.0000  0.0000  0.0000  0.0000  0.0000  0.0000  0.0000  0.0000  0.0000  0.0000  0.0000  0.0000  0.0000  0.0000
  o =  0.1080  v = -0.0674  0.2042 -0.4527 -0.7798  0.1917 -0.2034  0.2502  0.0000  0.0000  0.0000  0.0000  0.0000  0.0000  0.0000      0.0000  0.0000  0.0000  0.0000  0.0000  0.0000  0.0000  0.0000  0.0000  0.0000  0.0000  0.0000  0.0000  0.0000
  o =  0.1150  v = -0.0647  0.4728 -0.2406  0.4216 -0.1039 -0.7244 -0.0339  0.0000  0.0000  0.0000  0.0000  0.0000  0.0000  0.0000      0.0000  0.0000  0.0000  0.0000  0.0000  0.0000  0.0000  0.0000  0.0000  0.0000  0.0000  0.0000  0.0000  0.0000
  o =  0.1164  v =  0.0000  0.0000  0.0000  0.0000  0.0000  0.0000  0.0000  0.0528  0.0202 -0.4023  0.8906  0.1355  0.0428  0.1468      0.0000  0.0000  0.0000  0.0000  0.0000  0.0000  0.0000  0.0000  0.0000  0.0000  0.0000  0.0000  0.0000  0.0000
  o =  0.1292  v = -0.0605  0.5130  0.5020  0.0841  0.4895  0.1304  0.4663  0.0000  0.0000  0.0000  0.0000  0.0000  0.0000  0.0000      0.0000  0.0000  0.0000  0.0000  0.0000  0.0000  0.0000  0.0000  0.0000  0.0000  0.0000  0.0000  0.0000  0.0000
  o =  0.1397  v =  0.0000  0.0000  0.0000  0.0000  0.0000  0.0000  0.0000 -0.0730 -0.2316  0.5871  0.2355  0.0038  0.7352  0.0208      0.0000  0.0000  0.0000  0.0000  0.0000  0.0000  0.0000  0.0000  0.0000  0.0000  0.0000  0.0000  0.0000  0.0000
  o =  0.1876  v =  0.1527  0.5027  0.4137 -0.3858 -0.4482  0.0379 -0.4492  0.0000  0.0000  0.0000  0.0000  0.0000  0.0000  0.0000      0.0000  0.0000  0.0000  0.0000  0.0000  0.0000  0.0000  0.0000  0.0000  0.0000  0.0000  0.0000  0.0000  0.0000
  o =  0.1940  v =  0.0000  0.0000  0.0000  0.0000  0.0000  0.0000  0.0000  0.0993 -0.2094 -0.1688 -0.2868  0.6244  0.1489  0.6508      0.0000  0.0000  0.0000  0.0000  0.0000  0.0000  0.0000  0.0000  0.0000  0.0000  0.0000  0.0000  0.0000  0.0000
  o =  0.2448  v =  0.9669  0.0782 -0.1729  0.0801  0.0712  0.0529  0.1216  0.0000  0.0000  0.0000  0.0000  0.0000  0.0000  0.0000      0.0000  0.0000  0.0000  0.0000  0.0000  0.0000  0.0000  0.0000  0.0000  0.0000  0.0000  0.0000  0.0000  0.0000
  o =  0.2641  v =  0.0000  0.0000  0.0000  0.0000  0.0000  0.0000  0.0000  0.9844 -0.0719  0.1108  0.0160 -0.0229 -0.0153 -0.1121      0.0000  0.0000  0.0000  0.0000  0.0000  0.0000  0.0000  0.0000  0.0000  0.0000  0.0000  0.0000  0.0000  0.0000
  o =  0.4247  v = -0.0300 -0.0243  0.0435  0.0105 -0.7070  0.0470  0.7031  0.0000  0.0000  0.0000  0.0000  0.0000  0.0000  0.0000      0.0000  0.0000  0.0000  0.0000  0.0000  0.0000  0.0000  0.0000  0.0000  0.0000  0.0000  0.0000  0.0000  0.0000
  o =  0.4291  v =  0.0000  0.0000  0.0000  0.0000  0.0000  0.0000  0.0000 -0.0585 -0.0013 -0.0315 -0.0064  0.7140  0.0369 -0.6960      0.0000  0.0000  0.0000  0.0000  0.0000  0.0000  0.0000  0.0000  0.0000  0.0000  0.0000  0.0000  0.0000  0.0000
 
atom =   2  type =  1  l = 3
 
 onsite density matrix
 
spin component  1
 
  0.2679 -0.0295 -0.0483 -0.0075 -0.0169  0.0157  0.0410
 -0.0295  0.0903  0.0135 -0.0115 -0.0262 -0.0013 -0.0113
 -0.0483  0.0135  0.1264  0.0206 -0.0023  0.0163  0.0113
 -0.0075 -0.0115  0.0206  0.0884 -0.0034 -0.0129  0.0050
 -0.0169 -0.0262 -0.0023 -0.0034  0.3006 -0.0024 -0.1324
  0.0157 -0.0013  0.0163 -0.0129 -0.0024  0.1052  0.0253
  0.0410 -0.0113  0.0113  0.0050 -0.1324  0.0253  0.3075
 
spin component  2
 
  0.2090  0.0175 -0.0110  0.0226 -0.0224 -0.0070 -0.0053
  0.0175  0.0745 -0.0136 -0.0133 -0.0007 -0.0019 -0.0133
 -0.0110 -0.0136  0.1039  0.0001  0.0079 -0.0117 -0.0032
  0.0226 -0.0133  0.0001  0.0953 -0.0255  0.0031  0.0148
 -0.0224 -0.0007  0.0079 -0.0255  0.3256 -0.0233 -0.1214
 -0.0070 -0.0019 -0.0117  0.0031 -0.0233  0.0896 -0.0088
 -0.0053 -0.0133 -0.0032  0.0148 -0.1214 -0.0088  0.2909
 
 occupancies and eigenvectors
 
  o =  0.0599  v =  0.0275 -0.5145  0.4165 -0.6595 -0.0881 -0.3411 -0.0461  0.0000  0.0000  0.0000  0.0000  0.0000  0.0000  0.0000      0.0000  0.0000  0.0000  0.0000  0.0000  0.0000  0.0000  0.0000  0.0000  0.0000  0.0000  0.0000  0.0000  0.0000
  o =  0.0600  v =  0.0000  0.0000  0.0000  0.0000  0.0000  0.0000  0.0000  0.1208 -0.8470 -0.2670 -0.4032 -0.0662 -0.1599 -0.0647      0.0000  0.0000  0.0000  0.0000  0.0000  0.0000  0.0000  0.0000  0.0000  0.0000  0.0000  0.0000  0.0000  0.0000
  o =  0.0774  v =  0.0000  0.0000  0.0000  0.0000  0.0000  0.0000  0.0000 -0.1721  0.0835 -0.3727  0.3772 -0.0999 -0.8110 -0.1209      0.0000  0.0000  0.0000  0.0000  0.0000  0.0000  0.0000  0.0000  0.0000  0.0000  0.0000  0.0000  0.0000  0.0000
  o =  0.0813  v =  0.1907  0.7396  0.2261 -0.2024  0.1985 -0.5068  0.1682  0.0000  0.0000  0.0000  0.0000  0.0000  0.0000  0.0000      0.0000  0.0000  0.0000  0.0000  0.0000  0.0000  0.0000  0.0000  0.0000  0.0000  0.0000  0.0000  0.0000  0.0000
  o =  0.0972  v =  0.0000  0.0000  0.0000  0.0000  0.0000  0.0000  0.0000 -0.0654 -0.3746 -0.2792  0.7542  0.1400  0.4345  0.0179      0.0000  0.0000  0.0000  0.0000  0.0000  0.0000  0.0000  0.0000  0.0000  0.0000  0.0000  0.0000  0.0000  0.0000
  o =  0.1102  v = -0.1319  0.2866 -0.2993 -0.7110  0.0449  0.5495  0.0385  0.0000  0.0000  0.0000  0.0000  0.0000  0.0000  0.0000      0.0000  0.0000  0.0000  0.0000  0.0000  0.0000  0.0000  0.0000  0.0000  0.0000  0.0000  0.0000  0.0000  0.0000
  o =  0.1123  v =  0.0000  0.0000  0.0000  0.0000  0.0000  0.0000  0.0000  0.0432 -0.3427  0.8373  0.3101 -0.0749 -0.2611 -0.0983      0.0000  0.0000  0.0000  0.0000  0.0000  0.0000  0.0000  0.0000  0.0000  0.0000  0.0000  0.0000  0.0000  0.0000
  o =  0.1219  v = -0.2824 -0.1774 -0.7277 -0.0957  0.1157 -0.5226  0.2520  0.0000  0.0000  0.0000  0.0000  0.0000  0.0000  0.0000      0.0000  0.0000  0.0000  0.0000  0.0000  0.0000  0.0000  0.0000  0.0000  0.0000  0.0000  0.0000  0.0000  0.0000
  o =  0.1807  v =  0.1278  0.1999 -0.2595 -0.0734 -0.6505 -0.2122 -0.6347  0.0000  0.0000  0.0000  0.0000  0.0000  0.0000  0.0000      0.0000  0.0000  0.0000  0.0000  0.0000  0.0000  0.0000  0.0000  0.0000  0.0000  0.0000  0.0000  0.0000  0.0000
  o =  0.1810  v =  0.0000  0.0000  0.0000  0.0000  0.0000  0.0000  0.0000  0.4744 -0.0065  0.0017  0.0559  0.5695 -0.2394  0.6246      0.0000  0.0000  0.0000  0.0000  0.0000  0.0000  0.0000  0.0000  0.0000  0.0000  0.0000  0.0000  0.0000  0.0000
  o =  0.2257  v =  0.0000  0.0000  0.0000  0.0000  0.0000  0.0000  0.0000  0.8485  0.1315 -0.1005  0.1378 -0.2545  0.0362 -0.4093      0.0000  0.0000  0.0000  0.0000  0.0000  0.0000  0.0000  0.0000  0.0000  0.0000  0.0000  0.0000  0.0000  0.0000
  o =  0.2847  v =  0.8929 -0.1864 -0.2982 -0.0635  0.2668  0.0479 -0.0391  0.0000  0.0000  0.0000  0.0000  0.0000  0.0000  0.0000      0.0000  0.0000  0.0000  0.0000  0.0000  0.0000  0.0000  0.0000  0.0000  0.0000  0.0000  0.0000  0.0000  0.0000
  o =  0.4353  v =  0.0000  0.0000  0.0000  0.0000  0.0000  0.0000  0.0000 -0.0675  0.0215  0.0269 -0.0902  0.7559 -0.0350 -0.6430      0.0000  0.0000  0.0000  0.0000  0.0000  0.0000  0.0000  0.0000  0.0000  0.0000  0.0000  0.0000  0.0000  0.0000
  o =  0.4477  v = -0.2282 -0.0072  0.0004 -0.0086  0.6656 -0.0668 -0.7073  0.0000  0.0000  0.0000  0.0000  0.0000  0.0000  0.0000      0.0000  0.0000  0.0000  0.0000  0.0000  0.0000  0.0000  0.0000  0.0000  0.0000  0.0000  0.0000  0.0000  0.0000
 
atom =   3  type =  1  l = 3
 
 onsite density matrix
 
spin component  1
 
  0.1641 -0.0221  0.0007  0.0017 -0.0076  0.0136  0.0195
 -0.0221  0.0787 -0.0089  0.0120 -0.0038 -0.0099 -0.0282
  0.0007 -0.0089  0.1289  0.0079 -0.0099 -0.0041 -0.0041
  0.0017  0.0120  0.0079  0.1267  0.0214  0.0044  0.0043
 -0.0076 -0.0038 -0.0099  0.0214  0.1578 -0.0167 -0.0908
  0.0136 -0.0099 -0.0041  0.0044 -0.0167  0.1088  0.0018
  0.0195 -0.0282 -0.0041  0.0043 -0.0908  0.0018  0.2337
 
spin component  2
 
  0.1759 -0.0048 -0.0151  0.0152  0.0011  0.0041  0.0076
 -0.0048  0.0762  0.0185 -0.0024  0.0055 -0.0047 -0.0136
 -0.0151  0.0185  0.0718  0.0169 -0.0164 -0.0014  0.0131
  0.0152 -0.0024  0.0169  0.1077 -0.0062 -0.0069 -0.0107
  0.0011  0.0055 -0.0164 -0.0062  0.1523  0.0162 -0.0910
  0.0041 -0.0047 -0.0014 -0.0069  0.0162  0.0773  0.0044
  0.0076 -0.0136  0.0131 -0.0107 -0.0910  0.0044  0.1835
 
 occupancies and eigenvectors
 
  o =  0.0464  v =  0.0000  0.0000  0.0000  0.0000  0.0000  0.0000  0.0000  0.1117 -0.5562  0.7486 -0.2884  0.0388 -0.1315 -0.1256      0.0000  0.0000  0.0000  0.0000  0.0000  0.0000  0.0000  0.0000  0.0000  0.0000  0.0000  0.0000  0.0000  0.0000
  o =  0.0509  v = -0.0887 -0.7289 -0.1948  0.2888 -0.4182 -0.2504 -0.3193  0.0000  0.0000  0.0000  0.0000  0.0000  0.0000  0.0000      0.0000  0.0000  0.0000  0.0000  0.0000  0.0000  0.0000  0.0000  0.0000  0.0000  0.0000  0.0000  0.0000  0.0000
  o =  0.0607  v =  0.0000  0.0000  0.0000  0.0000  0.0000  0.0000  0.0000  0.0271 -0.0221  0.0045 -0.1026 -0.5895  0.6455 -0.4734      0.0000  0.0000  0.0000  0.0000  0.0000  0.0000  0.0000  0.0000  0.0000  0.0000  0.0000  0.0000  0.0000  0.0000
  o =  0.0844  v =  0.0000  0.0000  0.0000  0.0000  0.0000  0.0000  0.0000  0.0207  0.3894  0.4702  0.1115  0.3775  0.6072  0.3212      0.0000  0.0000  0.0000  0.0000  0.0000  0.0000  0.0000  0.0000  0.0000  0.0000  0.0000  0.0000  0.0000  0.0000
  o =  0.0865  v =  0.0000  0.0000  0.0000  0.0000  0.0000  0.0000  0.0000  0.1904  0.7035  0.2287 -0.4869 -0.1844 -0.3471 -0.1580      0.0000  0.0000  0.0000  0.0000  0.0000  0.0000  0.0000  0.0000  0.0000  0.0000  0.0000  0.0000  0.0000  0.0000
  o =  0.0948  v =  0.2961  0.6023 -0.1125  0.1937 -0.4657 -0.4809 -0.2265  0.0000  0.0000  0.0000  0.0000  0.0000  0.0000  0.0000      0.0000  0.0000  0.0000  0.0000  0.0000  0.0000  0.0000  0.0000  0.0000  0.0000  0.0000  0.0000  0.0000  0.0000
  o =  0.1138  v =  0.1000 -0.2019  0.1222 -0.3089  0.3620 -0.8069  0.2380  0.0000  0.0000  0.0000  0.0000  0.0000  0.0000  0.0000      0.0000  0.0000  0.0000  0.0000  0.0000  0.0000  0.0000  0.0000  0.0000  0.0000  0.0000  0.0000  0.0000  0.0000
  o =  0.1219  v =  0.0000  0.0000  0.0000  0.0000  0.0000  0.0000  0.0000  0.0424 -0.1857 -0.3746 -0.7937  0.2475  0.2717  0.2417      0.0000  0.0000  0.0000  0.0000  0.0000  0.0000  0.0000  0.0000  0.0000  0.0000  0.0000  0.0000  0.0000  0.0000
  o =  0.1318  v = -0.0132  0.0636 -0.8831  0.2455  0.3057 -0.0354  0.2468  0.0000  0.0000  0.0000  0.0000  0.0000  0.0000  0.0000      0.0000  0.0000  0.0000  0.0000  0.0000  0.0000  0.0000  0.0000  0.0000  0.0000  0.0000  0.0000  0.0000  0.0000
  o =  0.1374  v =  0.0875 -0.0352 -0.3921 -0.8441 -0.2407  0.1058 -0.2361  0.0000  0.0000  0.0000  0.0000  0.0000  0.0000  0.0000      0.0000  0.0000  0.0000  0.0000  0.0000  0.0000  0.0000  0.0000  0.0000  0.0000  0.0000  0.0000  0.0000  0.0000
  o =  0.1684  v = -0.9261  0.2147 -0.0259 -0.0915 -0.1955 -0.1934  0.1078  0.0000  0.0000  0.0000  0.0000  0.0000  0.0000  0.0000      0.0000  0.0000  0.0000  0.0000  0.0000  0.0000  0.0000  0.0000  0.0000  0.0000  0.0000  0.0000  0.0000  0.0000
  o =  0.1811  v =  0.0000  0.0000  0.0000  0.0000  0.0000  0.0000  0.0000  0.9729 -0.0707 -0.1286  0.1638  0.0565  0.0419  0.0090      0.0000  0.0000  0.0000  0.0000  0.0000  0.0000  0.0000  0.0000  0.0000  0.0000  0.0000  0.0000  0.0000  0.0000
  o =  0.2636  v =  0.0000  0.0000  0.0000  0.0000  0.0000  0.0000  0.0000 -0.0414  0.0644 -0.0964  0.0094  0.6404  0.0355 -0.7573      0.0000  0.0000  0.0000  0.0000  0.0000  0.0000  0.0000  0.0000  0.0000  0.0000  0.0000  0.0000  0.0000  0.0000
  o =  0.3015  v = -0.1704  0.1173 -0.0141  0.0498  0.5363 -0.0709 -0.8136  0.0000  0.0000  0.0000  0.0000  0.0000  0.0000  0.0000      0.0000  0.0000  0.0000  0.0000  0.0000  0.0000  0.0000  0.0000  0.0000  0.0000  0.0000  0.0000  0.0000  0.0000
 
atom =   4  type =  1  l = 3
 
 onsite density matrix
 
spin component  1
 
  0.1356 -0.0114 -0.0351  0.0013 -0.0145 -0.0019  0.0178
 -0.0114  0.1117 -0.0122  0.0023 -0.0225  0.0153  0.0025
 -0.0351 -0.0122  0.1505 -0.0180  0.0057  0.0124 -0.0066
  0.0013  0.0023 -0.0180  0.1390 -0.0267  0.0070 -0.0011
 -0.0145 -0.0225  0.0057 -0.0267  0.1663 -0.0066 -0.0749
 -0.0019  0.0153  0.0124  0.0070 -0.0066  0.1201  0.0083
  0.0178  0.0025 -0.0066 -0.0011 -0.0749  0.0083  0.1853
 
spin component  2
 
  0.1713  0.0281 -0.0264 -0.0087  0.0126  0.0035 -0.0067
  0.0281  0.1135  0.0010 -0.0019 -0.0005  0.0224  0.0074
 -0.0264  0.0010  0.1396 -0.0186  0.0038  0.0075  0.0072
 -0.0087 -0.0019 -0.0186  0.0960  0.0312  0.0070  0.0007
  0.0126 -0.0005  0.0038  0.0312  0.1890 -0.0064 -0.0414
  0.0035  0.0224  0.0075  0.0070 -0.0064  0.1099 -0.0213
 -0.0067  0.0074  0.0072  0.0007 -0.0414 -0.0213  0.1963
 
 occupancies and eigenvectors
 
  o =  0.0684  v =  0.0000  0.0000  0.0000  0.0000  0.0000  0.0000  0.0000 -0.1300 -0.1892 -0.3175 -0.7244  0.3008  0.4391  0.1962      0.0000  0.0000  0.0000  0.0000  0.0000  0.0000  0.0000  0.0000  0.0000  0.0000  0.0000  0.0000  0.0000  0.0000
  o =  0.0739  v = -0.3023 -0.5585 -0.3352 -0.2964 -0.4699  0.2931 -0.2996  0.0000  0.0000  0.0000  0.0000  0.0000  0.0000  0.0000      0.0000  0.0000  0.0000  0.0000  0.0000  0.0000  0.0000  0.0000  0.0000  0.0000  0.0000  0.0000  0.0000  0.0000
  o =  0.0841  v =  0.0000  0.0000  0.0000  0.0000  0.0000  0.0000  0.0000  0.3189 -0.6963  0.2001  0.3359 -0.0735  0.4917  0.1161      0.0000  0.0000  0.0000  0.0000  0.0000  0.0000  0.0000  0.0000  0.0000  0.0000  0.0000  0.0000  0.0000  0.0000
  o =  0.0994  v = -0.4449 -0.2393 -0.3461  0.1947  0.5219  0.2410  0.5067  0.0000  0.0000  0.0000  0.0000  0.0000  0.0000  0.0000      0.0000  0.0000  0.0000  0.0000  0.0000  0.0000  0.0000  0.0000  0.0000  0.0000  0.0000  0.0000  0.0000  0.0000
  o =  0.1173  v =  0.5434 -0.2762  0.2648  0.1651  0.1479  0.7131 -0.0274  0.0000  0.0000  0.0000  0.0000  0.0000  0.0000  0.0000      0.0000  0.0000  0.0000  0.0000  0.0000  0.0000  0.0000  0.0000  0.0000  0.0000  0.0000  0.0000  0.0000  0.0000
  o =  0.1213  v =  0.0000  0.0000  0.0000  0.0000  0.0000  0.0000  0.0000 -0.3457  0.4222 -0.3207  0.4815 -0.0077  0.5945  0.1182      0.0000  0.0000  0.0000  0.0000  0.0000  0.0000  0.0000  0.0000  0.0000  0.0000  0.0000  0.0000  0.0000  0.0000
  o =  0.1237  v =  0.0063 -0.6437  0.3035  0.5167 -0.0872 -0.4675  0.0225  0.0000  0.0000  0.0000  0.0000  0.0000  0.0000  0.0000      0.0000  0.0000  0.0000  0.0000  0.0000  0.0000  0.0000  0.0000  0.0000  0.0000  0.0000  0.0000  0.0000  0.0000
  o =  0.1443  v =  0.0000  0.0000  0.0000  0.0000  0.0000  0.0000  0.0000 -0.1542 -0.4357 -0.7763  0.1767 -0.1845 -0.3186 -0.1304      0.0000  0.0000  0.0000  0.0000  0.0000  0.0000  0.0000  0.0000  0.0000  0.0000  0.0000  0.0000  0.0000  0.0000
  o =  0.1518  v = -0.3491  0.3541 -0.0398  0.7061 -0.2072  0.2836 -0.3593  0.0000  0.0000  0.0000  0.0000  0.0000  0.0000  0.0000      0.0000  0.0000  0.0000  0.0000  0.0000  0.0000  0.0000  0.0000  0.0000  0.0000  0.0000  0.0000  0.0000  0.0000
  o =  0.1644  v =  0.0000  0.0000  0.0000  0.0000  0.0000  0.0000  0.0000  0.0202 -0.0531 -0.0414  0.2761  0.6396 -0.3156  0.6404      0.0000  0.0000  0.0000  0.0000  0.0000  0.0000  0.0000  0.0000  0.0000  0.0000  0.0000  0.0000  0.0000  0.0000
  o =  0.1789  v =  0.5018 -0.0417 -0.7592  0.2330  0.1386 -0.2082 -0.2308  0.0000  0.0000  0.0000  0.0000  0.0000  0.0000  0.0000      0.0000  0.0000  0.0000  0.0000  0.0000  0.0000  0.0000  0.0000  0.0000  0.0000  0.0000  0.0000  0.0000  0.0000
  o =  0.1915  v =  0.0000  0.0000  0.0000  0.0000  0.0000  0.0000  0.0000  0.8313  0.3289 -0.3770 -0.0529 -0.1498  0.0525  0.1750      0.0000  0.0000  0.0000  0.0000  0.0000  0.0000  0.0000  0.0000  0.0000  0.0000  0.0000  0.0000  0.0000  0.0000
  o =  0.2416  v =  0.0000  0.0000  0.0000  0.0000  0.0000  0.0000  0.0000 -0.2161 -0.0179  0.0989 -0.1425 -0.6622 -0.0900  0.6901      0.0000  0.0000  0.0000  0.0000  0.0000  0.0000  0.0000  0.0000  0.0000  0.0000  0.0000  0.0000  0.0000  0.0000
  o =  0.2636  v = -0.2042 -0.1144  0.1666 -0.1648  0.6443 -0.0724 -0.6855  0.0000  0.0000  0.0000  0.0000  0.0000  0.0000  0.0000      0.0000  0.0000  0.0000  0.0000  0.0000  0.0000  0.0000  0.0000  0.0000  0.0000  0.0000  0.0000  0.0000  0.0000
 
atom =   5  type =  1  l = 3
 
 onsite density matrix
 
spin component  1
 
  0.1638  0.0194 -0.0009 -0.0208 -0.0060  0.0067 -0.0001
  0.0194  0.0747  0.0002  0.0047 -0.0045  0.0043  0.0171
 -0.0009  0.0002  0.1032 -0.0066 -0.0192 -0.0141 -0.0157
 -0.0208  0.0047 -0.0066  0.0810 -0.0062 -0.0100 -0.0043
 -0.0060 -0.0045 -0.0192 -0.0062  0.1566  0.0089 -0.0456
  0.0067  0.0043 -0.0141 -0.0100  0.0089  0.0975  0.0129
 -0.0001  0.0171 -0.0157 -0.0043 -0.0456  0.0129  0.1364
 
spin component  2
 
  0.1196  0.0008 -0.0187 -0.0179  0.0056  0.0088 -0.0095
  0.0008  0.1306 -0.0115  0.0201  0.0031 -0.0125  0.0215
 -0.0187 -0.0115  0.1130  0.0184  0.0009  0.0021  0.0088
 -0.0179  0.0201  0.0184  0.0803 -0.0014 -0.0047 -0.0002
  0.0056  0.0031  0.0009 -0.0014  0.1538  0.0037 -0.0696
  0.0088 -0.0125  0.0021 -0.0047  0.0037  0.0880 -0.0039
 -0.0095  0.0215  0.0088 -0.0002 -0.0696 -0.0039  0.1416
 
 occupancies and eigenvectors
 
  o =  0.0557  v =  0.2241 -0.6341  0.3098  0.5354  0.2135  0.1152  0.3257  0.0000  0.0000  0.0000  0.0000  0.0000  0.0000  0.0000      0.0000  0.0000  0.0000  0.0000  0.0000  0.0000  0.0000  0.0000  0.0000  0.0000  0.0000  0.0000  0.0000  0.0000
  o =  0.0569  v =  0.0000  0.0000  0.0000  0.0000  0.0000  0.0000  0.0000  0.1489 -0.3778 -0.3206  0.6986  0.2986 -0.0526  0.3903      0.0000  0.0000  0.0000  0.0000  0.0000  0.0000  0.0000  0.0000  0.0000  0.0000  0.0000  0.0000  0.0000  0.0000
  o =  0.0770  v = -0.0344  0.6188  0.2985  0.5584  0.0174  0.4415 -0.1409  0.0000  0.0000  0.0000  0.0000  0.0000  0.0000  0.0000      0.0000  0.0000  0.0000  0.0000  0.0000  0.0000  0.0000  0.0000  0.0000  0.0000  0.0000  0.0000  0.0000  0.0000
  o =  0.0776  v =  0.0000  0.0000  0.0000  0.0000  0.0000  0.0000  0.0000 -0.0833 -0.0964  0.0790 -0.5556  0.5229 -0.2886  0.5587      0.0000  0.0000  0.0000  0.0000  0.0000  0.0000  0.0000  0.0000  0.0000  0.0000  0.0000  0.0000  0.0000  0.0000
  o =  0.0817  v =  0.0478 -0.3728 -0.4046  0.1494 -0.4612  0.4744 -0.4847  0.0000  0.0000  0.0000  0.0000  0.0000  0.0000  0.0000      0.0000  0.0000  0.0000  0.0000  0.0000  0.0000  0.0000  0.0000  0.0000  0.0000  0.0000  0.0000  0.0000  0.0000
  o =  0.0825  v =  0.0000  0.0000  0.0000  0.0000  0.0000  0.0000  0.0000 -0.3449  0.1125 -0.2360 -0.0911  0.1699  0.8587  0.1954      0.0000  0.0000  0.0000  0.0000  0.0000  0.0000  0.0000  0.0000  0.0000  0.0000  0.0000  0.0000  0.0000  0.0000
  o =  0.0929  v = -0.1725 -0.1542  0.5227 -0.5726  0.0222  0.5858  0.0410  0.0000  0.0000  0.0000  0.0000  0.0000  0.0000  0.0000      0.0000  0.0000  0.0000  0.0000  0.0000  0.0000  0.0000  0.0000  0.0000  0.0000  0.0000  0.0000  0.0000  0.0000
  o =  0.0998  v =  0.0000  0.0000  0.0000  0.0000  0.0000  0.0000  0.0000 -0.6076 -0.1499 -0.6500 -0.1129 -0.1373 -0.3454 -0.1867      0.0000  0.0000  0.0000  0.0000  0.0000  0.0000  0.0000  0.0000  0.0000  0.0000  0.0000  0.0000  0.0000  0.0000
  o =  0.1376  v =  0.1436 -0.0947  0.6107  0.0270 -0.3633 -0.4516 -0.5107  0.0000  0.0000  0.0000  0.0000  0.0000  0.0000  0.0000      0.0000  0.0000  0.0000  0.0000  0.0000  0.0000  0.0000  0.0000  0.0000  0.0000  0.0000  0.0000  0.0000  0.0000
  o =  0.1433  v =  0.0000  0.0000  0.0000  0.0000  0.0000  0.0000  0.0000  0.3146  0.7991 -0.4596  0.0389  0.1526 -0.1466  0.0699      0.0000  0.0000  0.0000  0.0000  0.0000  0.0000  0.0000  0.0000  0.0000  0.0000  0.0000  0.0000  0.0000  0.0000
  o =  0.1452  v =  0.0000  0.0000  0.0000  0.0000  0.0000  0.0000  0.0000  0.6062 -0.3904 -0.4445 -0.4218 -0.2694  0.1786  0.0108      0.0000  0.0000  0.0000  0.0000  0.0000  0.0000  0.0000  0.0000  0.0000  0.0000  0.0000  0.0000  0.0000  0.0000
  o =  0.1715  v =  0.9145  0.1439 -0.0535 -0.2234  0.2326  0.1370 -0.1319  0.0000  0.0000  0.0000  0.0000  0.0000  0.0000  0.0000      0.0000  0.0000  0.0000  0.0000  0.0000  0.0000  0.0000  0.0000  0.0000  0.0000  0.0000  0.0000  0.0000  0.0000
  o =  0.1968  v = -0.2442 -0.1501 -0.0474  0.0260  0.7449 -0.0301 -0.5993  0.0000  0.0000  0.0000  0.0000  0.0000  0.0000  0.0000      0.0000  0.0000  0.0000  0.0000  0.0000  0.0000  0.0000  0.0000  0.0000  0.0000  0.0000  0.0000  0.0000  0.0000
  o =  0.2215  v =  0.0000  0.0000  0.0000  0.0000  0.0000  0.0000  0.0000 -0.1274  0.1475  0.0630  0.0537 -0.7028 -0.0623  0.6763      0.0000  0.0000  0.0000  0.0000  0.0000  0.0000  0.0000  0.0000  0.0000  0.0000  0.0000  0.0000  0.0000  0.0000
 
atom =   6  type =  1  l = 3
 
 onsite density matrix
 
spin component  1
 
  0.1573 -0.0141  0.0086 -0.0101  0.0341 -0.0234  0.0211
 -0.0141  0.0665 -0.0035  0.0120  0.0023 -0.0140 -0.0149
  0.0086 -0.0035  0.1014 -0.0111 -0.0043 -0.0046 -0.0159
 -0.0101  0.0120 -0.0111  0.0838 -0.0200 -0.0149  0.0186
  0.0341  0.0023 -0.0043 -0.0200  0.2166 -0.0293 -0.1019
 -0.0234 -0.0140 -0.0046 -0.0149 -0.0293  0.1153 -0.0149
  0.0211 -0.0149 -0.0159  0.0186 -0.1019 -0.0149  0.1912
 
spin component  2
 
  0.1635 -0.0027 -0.0135  0.0049  0.0271  0.0199  0.0058
 -0.0027  0.1274 -0.0068  0.0103 -0.0121 -0.0051  0.0094
 -0.0135 -0.0068  0.0860  0.0300 -0.0001  0.0133 -0.0183
  0.0049  0.0103  0.0300  0.1519 -0.0000  0.0154  0.0423
  0.0271 -0.0121 -0.0001 -0.0000  0.2161  0.0132 -0.0972
  0.0199 -0.0051  0.0133  0.0154  0.0132  0.0756 -0.0204
  0.0058  0.0094 -0.0183  0.0423 -0.0972 -0.0204  0.2424
 
 occupancies and eigenvectors
 
  o =  0.0516  v =  0.0069  0.7848  0.2051 -0.0847  0.2665  0.3745  0.3516  0.0000  0.0000  0.0000  0.0000  0.0000  0.0000  0.0000      0.0000  0.0000  0.0000  0.0000  0.0000  0.0000  0.0000  0.0000  0.0000  0.0000  0.0000  0.0000  0.0000  0.0000
  o =  0.0602  v =  0.0000  0.0000  0.0000  0.0000  0.0000  0.0000  0.0000  0.2130  0.0490  0.6718 -0.1389  0.0504 -0.6910  0.0399      0.0000  0.0000  0.0000  0.0000  0.0000  0.0000  0.0000  0.0000  0.0000  0.0000  0.0000  0.0000  0.0000  0.0000
  o =  0.0624  v = -0.0992 -0.3753  0.3436  0.6886  0.3282  0.3228  0.2126  0.0000  0.0000  0.0000  0.0000  0.0000  0.0000  0.0000      0.0000  0.0000  0.0000  0.0000  0.0000  0.0000  0.0000  0.0000  0.0000  0.0000  0.0000  0.0000  0.0000  0.0000
  o =  0.0641  v =  0.0000  0.0000  0.0000  0.0000  0.0000  0.0000  0.0000 -0.0938  0.1607  0.5114 -0.4499  0.1845  0.6023  0.3235      0.0000  0.0000  0.0000  0.0000  0.0000  0.0000  0.0000  0.0000  0.0000  0.0000  0.0000  0.0000  0.0000  0.0000
  o =  0.0788  v =  0.4660  0.3289 -0.1896  0.5508 -0.3325  0.1794 -0.4389  0.0000  0.0000  0.0000  0.0000  0.0000  0.0000  0.0000      0.0000  0.0000  0.0000  0.0000  0.0000  0.0000  0.0000  0.0000  0.0000  0.0000  0.0000  0.0000  0.0000  0.0000
  o =  0.1068  v = -0.0432  0.1736  0.8184  0.0634 -0.2420 -0.4471 -0.1893  0.0000  0.0000  0.0000  0.0000  0.0000  0.0000  0.0000      0.0000  0.0000  0.0000  0.0000  0.0000  0.0000  0.0000  0.0000  0.0000  0.0000  0.0000  0.0000  0.0000  0.0000
  o =  0.1211  v =  0.0000  0.0000  0.0000  0.0000  0.0000  0.0000  0.0000  0.4059  0.0642  0.2977  0.1101 -0.6349  0.3234 -0.4719      0.0000  0.0000  0.0000  0.0000  0.0000  0.0000  0.0000  0.0000  0.0000  0.0000  0.0000  0.0000  0.0000  0.0000
  o =  0.1275  v =  0.0000  0.0000  0.0000  0.0000  0.0000  0.0000  0.0000 -0.0338 -0.9755  0.1749  0.0128 -0.0492  0.0889  0.0787      0.0000  0.0000  0.0000  0.0000  0.0000  0.0000  0.0000  0.0000  0.0000  0.0000  0.0000  0.0000  0.0000  0.0000
  o =  0.1279  v =  0.3927 -0.3089  0.3635 -0.4444 -0.1868  0.6051 -0.1404  0.0000  0.0000  0.0000  0.0000  0.0000  0.0000  0.0000      0.0000  0.0000  0.0000  0.0000  0.0000  0.0000  0.0000  0.0000  0.0000  0.0000  0.0000  0.0000  0.0000  0.0000
  o =  0.1619  v =  0.0000  0.0000  0.0000  0.0000  0.0000  0.0000  0.0000  0.5739 -0.0963 -0.4068 -0.6843 -0.0823 -0.0873  0.1151      0.0000  0.0000  0.0000  0.0000  0.0000  0.0000  0.0000  0.0000  0.0000  0.0000  0.0000  0.0000  0.0000  0.0000
  o =  0.1905  v =  0.0000  0.0000  0.0000  0.0000  0.0000  0.0000  0.0000  0.6668  0.0108  0.0307  0.5221  0.3913  0.1777  0.3114      0.0000  0.0000  0.0000  0.0000  0.0000  0.0000  0.0000  0.0000  0.0000  0.0000  0.0000  0.0000  0.0000  0.0000
  o =  0.1921  v =  0.7796 -0.0906  0.0121  0.0009  0.2261 -0.3904  0.4247  0.0000  0.0000  0.0000  0.0000  0.0000  0.0000  0.0000      0.0000  0.0000  0.0000  0.0000  0.0000  0.0000  0.0000  0.0000  0.0000  0.0000  0.0000  0.0000  0.0000  0.0000
  o =  0.3126  v = -0.0961 -0.0375 -0.0435  0.1172 -0.7524  0.0703  0.6346  0.0000  0.0000  0.0000  0.0000  0.0000  0.0000  0.0000      0.0000  0.0000  0.0000  0.0000  0.0000  0.0000  0.0000  0.0000  0.0000  0.0000  0.0000  0.0000  0.0000  0.0000
  o =  0.3376  v =  0.0000  0.0000  0.0000  0.0000  0.0000  0.0000  0.0000 -0.0775  0.0817 -0.0379  0.1587 -0.6309 -0.0899  0.7447      0.0000  0.0000  0.0000  0.0000  0.0000  0.0000  0.0000  0.0000  0.0000  0.0000  0.0000  0.0000  0.0000  0.0000
 
    SETDIJ:  cpu time    0.0294: real time    0.0416
    TRIAL :  cpu time    0.0311: real time    0.0313
    CORREC:  cpu time    0.0691: real time    0.0732
    CHARGE:  cpu time    0.0071: real time    0.0071
    --------------------------------------------
      LOOP:  cpu time    0.1610: real time    0.1781

 eigenvalue-minimisations  :     0
 total energy-change (2. order) : 0.1167452E+05  (-0.1634572E+06)
 number of electron      78.0000000 magnetization       0.0000000
 augmentation part       37.4978831 magnetization       0.1883400

 Free energy of the ion-electron system (eV)
  ---------------------------------------------------
  alpha Z        PSCENC =       412.77266595
  Ewald energy   TEWEN  =      2536.40998733
  -Hartree energ DENC   =      -206.36420949
  -exchange      EXHF   =         0.00000000
  -V(xc)+E(xc)   XCENC  =       206.00885004
  PAW double counting   =      2533.57242757    -2574.59636199
  entropy T*S    EENTRO =        -0.00000000
  eigenvalues    EBANDS =       999.06012217
  atomic energy  EATOM  =      7767.83469820
  ---------------------------------------------------
  free energy    TOTEN  =     11674.52298253 eV

  energy without entropy =    11674.52298253  energy(sigma->0) =    11674.52298253


--------------------------------------------------------------------------------------------------------




--------------------------------------- Iteration      1(   2)  ---------------------------------------


    POTLOK:  cpu time    0.0221: real time    0.0221
atom =   1  type =  1  l = 3
 
 onsite density matrix
 
spin component  1
 
  0.5757  0.0518 -0.0438  0.0457  0.0114 -0.0090 -0.0527
  0.0518  0.4059  0.0630 -0.0462 -0.0047 -0.0112 -0.0193
 -0.0438  0.0630  0.4242 -0.0339 -0.0965  0.1048  0.0426
  0.0457 -0.0462 -0.0339  0.5194 -0.0401  0.0611  0.0338
  0.0114 -0.0047 -0.0965 -0.0401  0.4240 -0.0778 -0.1245
 -0.0090 -0.0112  0.1048  0.0611 -0.0778  0.2701  0.0237
 -0.0527 -0.0193  0.0426  0.0338 -0.1245  0.0237  0.3774
 
spin component  2
 
  0.4293 -0.0034 -0.0129  0.0151  0.0903  0.0346 -0.0766
 -0.0034  0.3071 -0.0268 -0.0886 -0.0262 -0.0909 -0.0905
 -0.0129 -0.0268  0.2505 -0.0130 -0.0646  0.0330 -0.0511
  0.0151 -0.0886 -0.0130  0.4200  0.0277 -0.0116 -0.0106
  0.0903 -0.0262 -0.0646  0.0277  0.3761  0.0547 -0.1089
  0.0346 -0.0909  0.0330 -0.0116  0.0547  0.3352 -0.0522
 -0.0766 -0.0905 -0.0511 -0.0106 -0.1089 -0.0522  0.4773
 
 occupancies and eigenvectors
 
  o =  0.1469  v =  0.0000  0.0000  0.0000  0.0000  0.0000  0.0000  0.0000 -0.0052  0.6177  0.5040  0.2181  0.3190  0.2413  0.3961      0.0000  0.0000  0.0000  0.0000  0.0000  0.0000  0.0000  0.0000  0.0000  0.0000  0.0000  0.0000  0.0000  0.0000
  o =  0.1937  v = -0.0120  0.1496 -0.4142 -0.1746  0.1650  0.8532  0.1423  0.0000  0.0000  0.0000  0.0000  0.0000  0.0000  0.0000      0.0000  0.0000  0.0000  0.0000  0.0000  0.0000  0.0000  0.0000  0.0000  0.0000  0.0000  0.0000  0.0000  0.0000
  o =  0.1991  v =  0.0000  0.0000  0.0000  0.0000  0.0000  0.0000  0.0000  0.0201  0.3916 -0.5880  0.1977 -0.3783  0.5640 -0.0100      0.0000  0.0000  0.0000  0.0000  0.0000  0.0000  0.0000  0.0000  0.0000  0.0000  0.0000  0.0000  0.0000  0.0000
  o =  0.2619  v =  0.1372 -0.0800  0.3355  0.0366  0.6667 -0.0499  0.6434  0.0000  0.0000  0.0000  0.0000  0.0000  0.0000  0.0000      0.0000  0.0000  0.0000  0.0000  0.0000  0.0000  0.0000  0.0000  0.0000  0.0000  0.0000  0.0000  0.0000  0.0000
  o =  0.3274  v =  0.0000  0.0000  0.0000  0.0000  0.0000  0.0000  0.0000  0.6052 -0.0099  0.4278  0.1369 -0.6539 -0.0560 -0.0357      0.0000  0.0000  0.0000  0.0000  0.0000  0.0000  0.0000  0.0000  0.0000  0.0000  0.0000  0.0000  0.0000  0.0000
  o =  0.3397  v = -0.1929  0.7117 -0.4055  0.1841 -0.0677 -0.3361  0.3747  0.0000  0.0000  0.0000  0.0000  0.0000  0.0000  0.0000      0.0000  0.0000  0.0000  0.0000  0.0000  0.0000  0.0000  0.0000  0.0000  0.0000  0.0000  0.0000  0.0000  0.0000
  o =  0.3853  v = -0.2824  0.3954  0.3616  0.4651  0.3782  0.2046 -0.4816  0.0000  0.0000  0.0000  0.0000  0.0000  0.0000  0.0000      0.0000  0.0000  0.0000  0.0000  0.0000  0.0000  0.0000  0.0000  0.0000  0.0000  0.0000  0.0000  0.0000  0.0000
  o =  0.3864  v =  0.0000  0.0000  0.0000  0.0000  0.0000  0.0000  0.0000 -0.5526 -0.2184  0.4578  0.0641 -0.2140  0.4754 -0.4018      0.0000  0.0000  0.0000  0.0000  0.0000  0.0000  0.0000  0.0000  0.0000  0.0000  0.0000  0.0000  0.0000  0.0000
  o =  0.3918  v =  0.0000  0.0000  0.0000  0.0000  0.0000  0.0000  0.0000  0.2616 -0.2647  0.0581 -0.6790  0.0785  0.5316  0.3292      0.0000  0.0000  0.0000  0.0000  0.0000  0.0000  0.0000  0.0000  0.0000  0.0000  0.0000  0.0000  0.0000  0.0000
  o =  0.5020  v =  0.0000  0.0000  0.0000  0.0000  0.0000  0.0000  0.0000  0.1231 -0.5876 -0.0654  0.6482  0.1762  0.2327  0.3606      0.0000  0.0000  0.0000  0.0000  0.0000  0.0000  0.0000  0.0000  0.0000  0.0000  0.0000  0.0000  0.0000  0.0000
  o =  0.5429  v =  0.4366  0.5538  0.4569 -0.5077 -0.1695  0.0684 -0.0526  0.0000  0.0000  0.0000  0.0000  0.0000  0.0000  0.0000      0.0000  0.0000  0.0000  0.0000  0.0000  0.0000  0.0000  0.0000  0.0000  0.0000  0.0000  0.0000  0.0000  0.0000
  o =  0.6036  v = -0.6407  0.0012 -0.0148 -0.6716  0.2915 -0.1879 -0.1340  0.0000  0.0000  0.0000  0.0000  0.0000  0.0000  0.0000      0.0000  0.0000  0.0000  0.0000  0.0000  0.0000  0.0000  0.0000  0.0000  0.0000  0.0000  0.0000  0.0000  0.0000
  o =  0.6420  v =  0.0000  0.0000  0.0000  0.0000  0.0000  0.0000  0.0000 -0.4943 -0.0449 -0.0028 -0.0963 -0.4945 -0.2404  0.6648      0.0000  0.0000  0.0000  0.0000  0.0000  0.0000  0.0000  0.0000  0.0000  0.0000  0.0000  0.0000  0.0000  0.0000
  o =  0.6696  v = -0.5128 -0.0403  0.4602  0.0954 -0.5167  0.2734  0.4156  0.0000  0.0000  0.0000  0.0000  0.0000  0.0000  0.0000      0.0000  0.0000  0.0000  0.0000  0.0000  0.0000  0.0000  0.0000  0.0000  0.0000  0.0000  0.0000  0.0000  0.0000
 
atom =   2  type =  1  l = 3
 
 onsite density matrix
 
spin component  1
 
  0.3470  0.0346  0.0576  0.0028 -0.0850  0.0218 -0.0896
  0.0346  0.3119 -0.0112 -0.0551  0.0104  0.0453  0.0010
  0.0576 -0.0112  0.2028  0.0352 -0.0412  0.0157  0.0206
  0.0028 -0.0551  0.0352  0.1962 -0.0278 -0.0602 -0.0372
 -0.0850  0.0104 -0.0412 -0.0278  0.2895  0.0195 -0.0392
  0.0218  0.0453  0.0157 -0.0602  0.0195  0.1709 -0.0356
 -0.0896  0.0010  0.0206 -0.0372 -0.0392 -0.0356  0.4028
 
spin component  2
 
  0.4021  0.0069 -0.0799  0.0946  0.0879  0.0201 -0.0624
  0.0069  0.1518  0.0039 -0.0388 -0.0368 -0.0128  0.0003
 -0.0799  0.0039  0.1804  0.0014 -0.0006 -0.0186  0.0091
  0.0946 -0.0388  0.0014  0.1813  0.0557  0.0276 -0.0135
  0.0879 -0.0368 -0.0006  0.0557  0.3137  0.0049 -0.0019
  0.0201 -0.0128 -0.0186  0.0276  0.0049  0.2547 -0.0227
 -0.0624  0.0003  0.0091 -0.0135 -0.0019 -0.0227  0.3055
 
 occupancies and eigenvectors
 
  o =  0.0967  v = -0.1190  0.0238  0.3917 -0.6046 -0.0353 -0.6473 -0.2146  0.0000  0.0000  0.0000  0.0000  0.0000  0.0000  0.0000      0.0000  0.0000  0.0000  0.0000  0.0000  0.0000  0.0000  0.0000  0.0000  0.0000  0.0000  0.0000  0.0000  0.0000
  o =  0.0991  v =  0.0000  0.0000  0.0000  0.0000  0.0000  0.0000  0.0000 -0.3377  0.5710 -0.3813  0.6329  0.0721 -0.0775 -0.0525      0.0000  0.0000  0.0000  0.0000  0.0000  0.0000  0.0000  0.0000  0.0000  0.0000  0.0000  0.0000  0.0000  0.0000
  o =  0.1549  v =  0.0000  0.0000  0.0000  0.0000  0.0000  0.0000  0.0000  0.2011  0.6835  0.6569 -0.0916  0.0760  0.2061  0.0657      0.0000  0.0000  0.0000  0.0000  0.0000  0.0000  0.0000  0.0000  0.0000  0.0000  0.0000  0.0000  0.0000  0.0000
  o =  0.1714  v = -0.5328 -0.0154  0.4029 -0.0985 -0.4367  0.5396 -0.2489  0.0000  0.0000  0.0000  0.0000  0.0000  0.0000  0.0000      0.0000  0.0000  0.0000  0.0000  0.0000  0.0000  0.0000  0.0000  0.0000  0.0000  0.0000  0.0000  0.0000  0.0000
  o =  0.1732  v =  0.0000  0.0000  0.0000  0.0000  0.0000  0.0000  0.0000  0.0837 -0.3292  0.4996  0.6730 -0.3971 -0.1501  0.0427      0.0000  0.0000  0.0000  0.0000  0.0000  0.0000  0.0000  0.0000  0.0000  0.0000  0.0000  0.0000  0.0000  0.0000
  o =  0.1938  v =  0.0843 -0.3604 -0.6380 -0.5504 -0.3650  0.1335 -0.0432  0.0000  0.0000  0.0000  0.0000  0.0000  0.0000  0.0000      0.0000  0.0000  0.0000  0.0000  0.0000  0.0000  0.0000  0.0000  0.0000  0.0000  0.0000  0.0000  0.0000  0.0000
  o =  0.2077  v = -0.3069  0.4614 -0.4006  0.3430 -0.4650 -0.3974 -0.2014  0.0000  0.0000  0.0000  0.0000  0.0000  0.0000  0.0000      0.0000  0.0000  0.0000  0.0000  0.0000  0.0000  0.0000  0.0000  0.0000  0.0000  0.0000  0.0000  0.0000  0.0000
  o =  0.2514  v =  0.0000  0.0000  0.0000  0.0000  0.0000  0.0000  0.0000  0.0489 -0.0577 -0.2089  0.1193 -0.2612  0.8136  0.4541      0.0000  0.0000  0.0000  0.0000  0.0000  0.0000  0.0000  0.0000  0.0000  0.0000  0.0000  0.0000  0.0000  0.0000
  o =  0.2646  v =  0.0000  0.0000  0.0000  0.0000  0.0000  0.0000  0.0000  0.4678  0.2593 -0.2788 -0.1200 -0.4468 -0.4620  0.4568      0.0000  0.0000  0.0000  0.0000  0.0000  0.0000  0.0000  0.0000  0.0000  0.0000  0.0000  0.0000  0.0000  0.0000
  o =  0.3171  v =  0.0000  0.0000  0.0000  0.0000  0.0000  0.0000  0.0000  0.0940  0.1541 -0.1225 -0.1273 -0.6262  0.1893 -0.7129      0.0000  0.0000  0.0000  0.0000  0.0000  0.0000  0.0000  0.0000  0.0000  0.0000  0.0000  0.0000  0.0000  0.0000
  o =  0.3662  v =  0.1642  0.7942 -0.0346 -0.4279  0.0312  0.2848  0.2754  0.0000  0.0000  0.0000  0.0000  0.0000  0.0000  0.0000      0.0000  0.0000  0.0000  0.0000  0.0000  0.0000  0.0000  0.0000  0.0000  0.0000  0.0000  0.0000  0.0000  0.0000
  o =  0.4006  v =  0.3748 -0.1091  0.3181  0.1210 -0.6562 -0.1341  0.5321  0.0000  0.0000  0.0000  0.0000  0.0000  0.0000  0.0000      0.0000  0.0000  0.0000  0.0000  0.0000  0.0000  0.0000  0.0000  0.0000  0.0000  0.0000  0.0000  0.0000  0.0000
  o =  0.4845  v = -0.6582 -0.1172 -0.1194 -0.0793  0.1641 -0.1227  0.7004  0.0000  0.0000  0.0000  0.0000  0.0000  0.0000  0.0000      0.0000  0.0000  0.0000  0.0000  0.0000  0.0000  0.0000  0.0000  0.0000  0.0000  0.0000  0.0000  0.0000  0.0000
  o =  0.5292  v =  0.0000  0.0000  0.0000  0.0000  0.0000  0.0000  0.0000 -0.7800  0.0641  0.1929 -0.3053 -0.4140 -0.1327  0.2608      0.0000  0.0000  0.0000  0.0000  0.0000  0.0000  0.0000  0.0000  0.0000  0.0000  0.0000  0.0000  0.0000  0.0000
 
atom =   3  type =  1  l = 3
 
 onsite density matrix
 
spin component  1
 
  0.5120  0.0547 -0.0305 -0.0563  0.0026 -0.0132 -0.0375
  0.0547  0.2543 -0.0311 -0.0038 -0.0013 -0.0465 -0.0958
 -0.0305 -0.0311  0.3333 -0.0371 -0.0542 -0.0539  0.0235
 -0.0563 -0.0038 -0.0371  0.4466 -0.0588  0.0605  0.0247
  0.0026 -0.0013 -0.0542 -0.0588  0.3714  0.0606 -0.1373
 -0.0132 -0.0465 -0.0539  0.0605  0.0606  0.3382 -0.0926
 -0.0375 -0.0958  0.0235  0.0247 -0.1373 -0.0926  0.4608
 
spin component  2
 
  0.4987 -0.0170 -0.0060 -0.0264  0.0924 -0.0128 -0.0311
 -0.0170  0.2673  0.0521 -0.0285  0.0263 -0.0494 -0.1013
 -0.0060  0.0521  0.1928 -0.0014  0.0118  0.0005 -0.0398
 -0.0264 -0.0285 -0.0014  0.3278 -0.0029 -0.0080  0.0464
  0.0924  0.0263  0.0118 -0.0029  0.5189  0.0022 -0.2156
 -0.0128 -0.0494  0.0005 -0.0080  0.0022  0.2456  0.0497
 -0.0311 -0.1013 -0.0398  0.0464 -0.2156  0.0497  0.4594
 
 occupancies and eigenvectors
 
  o =  0.1566  v =  0.0000  0.0000  0.0000  0.0000  0.0000  0.0000  0.0000 -0.0409 -0.5404  0.7680 -0.1062  0.0293 -0.3229  0.0060      0.0000  0.0000  0.0000  0.0000  0.0000  0.0000  0.0000  0.0000  0.0000  0.0000  0.0000  0.0000  0.0000  0.0000
  o =  0.1566  v = -0.0384  0.7252  0.2467 -0.0483  0.2112  0.4219  0.4322  0.0000  0.0000  0.0000  0.0000  0.0000  0.0000  0.0000      0.0000  0.0000  0.0000  0.0000  0.0000  0.0000  0.0000  0.0000  0.0000  0.0000  0.0000  0.0000  0.0000  0.0000
  o =  0.2069  v =  0.0000  0.0000  0.0000  0.0000  0.0000  0.0000  0.0000 -0.0800  0.4047  0.0589 -0.1887  0.4399 -0.4128  0.6533      0.0000  0.0000  0.0000  0.0000  0.0000  0.0000  0.0000  0.0000  0.0000  0.0000  0.0000  0.0000  0.0000  0.0000
  o =  0.2204  v =  0.0000  0.0000  0.0000  0.0000  0.0000  0.0000  0.0000  0.0949  0.4275  0.5948  0.1332  0.0050  0.6465  0.1368      0.0000  0.0000  0.0000  0.0000  0.0000  0.0000  0.0000  0.0000  0.0000  0.0000  0.0000  0.0000  0.0000  0.0000
  o =  0.2461  v = -0.1393  0.1140 -0.3094 -0.4117 -0.7007  0.4334 -0.1536  0.0000  0.0000  0.0000  0.0000  0.0000  0.0000  0.0000      0.0000  0.0000  0.0000  0.0000  0.0000  0.0000  0.0000  0.0000  0.0000  0.0000  0.0000  0.0000  0.0000  0.0000
  o =  0.3062  v = -0.2369  0.4221 -0.6996 -0.0261  0.1054 -0.5031  0.1067  0.0000  0.0000  0.0000  0.0000  0.0000  0.0000  0.0000      0.0000  0.0000  0.0000  0.0000  0.0000  0.0000  0.0000  0.0000  0.0000  0.0000  0.0000  0.0000  0.0000  0.0000
  o =  0.3073  v =  0.0000  0.0000  0.0000  0.0000  0.0000  0.0000  0.0000 -0.1959 -0.3111 -0.1369 -0.7357  0.2357  0.4855  0.1167      0.0000  0.0000  0.0000  0.0000  0.0000  0.0000  0.0000  0.0000  0.0000  0.0000  0.0000  0.0000  0.0000  0.0000
  o =  0.3476  v =  0.1273 -0.4695 -0.4435 -0.2481  0.3494  0.3563  0.5061  0.0000  0.0000  0.0000  0.0000  0.0000  0.0000  0.0000      0.0000  0.0000  0.0000  0.0000  0.0000  0.0000  0.0000  0.0000  0.0000  0.0000  0.0000  0.0000  0.0000  0.0000
  o =  0.3667  v =  0.0000  0.0000  0.0000  0.0000  0.0000  0.0000  0.0000  0.2298  0.4041  0.1301 -0.6198 -0.5276 -0.2440 -0.2118      0.0000  0.0000  0.0000  0.0000  0.0000  0.0000  0.0000  0.0000  0.0000  0.0000  0.0000  0.0000  0.0000  0.0000
  o =  0.4587  v = -0.5598 -0.1043  0.3062 -0.6850  0.2722 -0.1757 -0.0876  0.0000  0.0000  0.0000  0.0000  0.0000  0.0000  0.0000      0.0000  0.0000  0.0000  0.0000  0.0000  0.0000  0.0000  0.0000  0.0000  0.0000  0.0000  0.0000  0.0000  0.0000
  o =  0.4901  v =  0.0000  0.0000  0.0000  0.0000  0.0000  0.0000  0.0000  0.8905 -0.2676 -0.1111 -0.0028 -0.0139  0.0768  0.3420      0.0000  0.0000  0.0000  0.0000  0.0000  0.0000  0.0000  0.0000  0.0000  0.0000  0.0000  0.0000  0.0000  0.0000
  o =  0.5491  v =  0.6724  0.1024  0.1540 -0.5001 -0.1968 -0.4092  0.2396  0.0000  0.0000  0.0000  0.0000  0.0000  0.0000  0.0000      0.0000  0.0000  0.0000  0.0000  0.0000  0.0000  0.0000  0.0000  0.0000  0.0000  0.0000  0.0000  0.0000  0.0000
  o =  0.6525  v = -0.3759 -0.2027  0.1996  0.2157 -0.4674 -0.2363  0.6760  0.0000  0.0000  0.0000  0.0000  0.0000  0.0000  0.0000      0.0000  0.0000  0.0000  0.0000  0.0000  0.0000  0.0000  0.0000  0.0000  0.0000  0.0000  0.0000  0.0000  0.0000
  o =  0.7625  v =  0.0000  0.0000  0.0000  0.0000  0.0000  0.0000  0.0000 -0.3142 -0.1726 -0.0698  0.0994 -0.6867  0.0790  0.6156      0.0000  0.0000  0.0000  0.0000  0.0000  0.0000  0.0000  0.0000  0.0000  0.0000  0.0000  0.0000  0.0000  0.0000
 
atom =   4  type =  1  l = 3
 
 onsite density matrix
 
spin component  1
 
  0.7635  0.0206 -0.0215 -0.0319  0.0448 -0.0354 -0.0079
  0.0206  0.7760 -0.0019 -0.0441 -0.0525  0.0040 -0.0236
 -0.0215 -0.0019  0.7556  0.0174  0.0393  0.0280  0.0287
 -0.0319 -0.0441  0.0174  0.7446 -0.0270 -0.0152 -0.0366
  0.0448 -0.0525  0.0393 -0.0270  0.6994  0.0093  0.0194
 -0.0354  0.0040  0.0280 -0.0152  0.0093  0.7528 -0.0059
 -0.0079 -0.0236  0.0287 -0.0366  0.0194 -0.0059  0.7033
 
spin component  2
 
  0.7227 -0.0076 -0.0083 -0.1049 -0.0693 -0.0522 -0.0480
 -0.0076  0.7720  0.0001 -0.0148  0.0164 -0.0098 -0.0258
 -0.0083  0.0001  0.7407 -0.0849  0.0389  0.0081  0.0342
 -0.1049 -0.0148 -0.0849  0.6997  0.0212  0.0123  0.0168
 -0.0693  0.0164  0.0389  0.0212  0.7220 -0.0674 -0.0251
 -0.0522 -0.0098  0.0081  0.0123 -0.0674  0.7813  0.0038
 -0.0480 -0.0258  0.0342  0.0168 -0.0251  0.0038  0.7768
 
 occupancies and eigenvectors
 
  o =  0.5693  v =  0.0000  0.0000  0.0000  0.0000  0.0000  0.0000  0.0000  0.6463  0.0728  0.2736  0.6421  0.2213  0.1835  0.0850      0.0000  0.0000  0.0000  0.0000  0.0000  0.0000  0.0000  0.0000  0.0000  0.0000  0.0000  0.0000  0.0000  0.0000
  o =  0.6018  v =  0.0000  0.0000  0.0000  0.0000  0.0000  0.0000  0.0000  0.2415 -0.0199 -0.4780 -0.3821  0.6126  0.3411  0.2740      0.0000  0.0000  0.0000  0.0000  0.0000  0.0000  0.0000  0.0000  0.0000  0.0000  0.0000  0.0000  0.0000  0.0000
  o =  0.6253  v =  0.2430 -0.4103  0.3392 -0.3604 -0.6919  0.0030 -0.2212  0.0000  0.0000  0.0000  0.0000  0.0000  0.0000  0.0000      0.0000  0.0000  0.0000  0.0000  0.0000  0.0000  0.0000  0.0000  0.0000  0.0000  0.0000  0.0000  0.0000  0.0000
  o =  0.6562  v = -0.3927 -0.0391  0.1209 -0.4016  0.3636 -0.3157 -0.6607  0.0000  0.0000  0.0000  0.0000  0.0000  0.0000  0.0000      0.0000  0.0000  0.0000  0.0000  0.0000  0.0000  0.0000  0.0000  0.0000  0.0000  0.0000  0.0000  0.0000  0.0000
  o =  0.7261  v = -0.4018  0.0813  0.1233 -0.2395 -0.1947 -0.6131  0.5879  0.0000  0.0000  0.0000  0.0000  0.0000  0.0000  0.0000      0.0000  0.0000  0.0000  0.0000  0.0000  0.0000  0.0000  0.0000  0.0000  0.0000  0.0000  0.0000  0.0000  0.0000
  o =  0.7379  v =  0.2739  0.3695  0.6711  0.4476  0.0233 -0.3331 -0.1619  0.0000  0.0000  0.0000  0.0000  0.0000  0.0000  0.0000      0.0000  0.0000  0.0000  0.0000  0.0000  0.0000  0.0000  0.0000  0.0000  0.0000  0.0000  0.0000  0.0000  0.0000
  o =  0.7388  v =  0.0000  0.0000  0.0000  0.0000  0.0000  0.0000  0.0000  0.1217  0.6014 -0.2798  0.0423 -0.3406 -0.2645  0.5978      0.0000  0.0000  0.0000  0.0000  0.0000  0.0000  0.0000  0.0000  0.0000  0.0000  0.0000  0.0000  0.0000  0.0000
  o =  0.7802  v =  0.0000  0.0000  0.0000  0.0000  0.0000  0.0000  0.0000 -0.1863  0.7049  0.2869 -0.1494  0.0428  0.5415 -0.2623      0.0000  0.0000  0.0000  0.0000  0.0000  0.0000  0.0000  0.0000  0.0000  0.0000  0.0000  0.0000  0.0000  0.0000
  o =  0.7983  v = -0.2052  0.4750  0.4301 -0.4166  0.0261  0.5900  0.1582  0.0000  0.0000  0.0000  0.0000  0.0000  0.0000  0.0000      0.0000  0.0000  0.0000  0.0000  0.0000  0.0000  0.0000  0.0000  0.0000  0.0000  0.0000  0.0000  0.0000  0.0000
  o =  0.8123  v = -0.5203  0.3355 -0.2279  0.3541 -0.5751  0.0765 -0.3206  0.0000  0.0000  0.0000  0.0000  0.0000  0.0000  0.0000      0.0000  0.0000  0.0000  0.0000  0.0000  0.0000  0.0000  0.0000  0.0000  0.0000  0.0000  0.0000  0.0000  0.0000
  o =  0.8153  v =  0.0000  0.0000  0.0000  0.0000  0.0000  0.0000  0.0000  0.1109  0.1075 -0.7147  0.3002 -0.2162  0.1037 -0.5638      0.0000  0.0000  0.0000  0.0000  0.0000  0.0000  0.0000  0.0000  0.0000  0.0000  0.0000  0.0000  0.0000  0.0000
  o =  0.8337  v =  0.0000  0.0000  0.0000  0.0000  0.0000  0.0000  0.0000 -0.2704  0.3210 -0.0289  0.2186  0.6371 -0.5774 -0.1895      0.0000  0.0000  0.0000  0.0000  0.0000  0.0000  0.0000  0.0000  0.0000  0.0000  0.0000  0.0000  0.0000  0.0000
  o =  0.8390  v =  0.4873  0.5906 -0.4096 -0.3902 -0.1387 -0.2440 -0.1220  0.0000  0.0000  0.0000  0.0000  0.0000  0.0000  0.0000      0.0000  0.0000  0.0000  0.0000  0.0000  0.0000  0.0000  0.0000  0.0000  0.0000  0.0000  0.0000  0.0000  0.0000
  o =  0.8760  v =  0.0000  0.0000  0.0000  0.0000  0.0000  0.0000  0.0000 -0.6237 -0.1455 -0.1565  0.5289  0.0727  0.3776  0.3711      0.0000  0.0000  0.0000  0.0000  0.0000  0.0000  0.0000  0.0000  0.0000  0.0000  0.0000  0.0000  0.0000  0.0000
 
atom =   5  type =  1  l = 3
 
 onsite density matrix
 
spin component  1
 
  0.7700  0.0424  0.0022  0.0069 -0.0336  0.0026 -0.0138
  0.0424  0.5722  0.0568  0.0608  0.0384  0.0657  0.0589
  0.0022  0.0568  0.7268 -0.0285 -0.0428 -0.0586 -0.0035
  0.0069  0.0608 -0.0285  0.6285 -0.0043 -0.0358  0.0358
 -0.0336  0.0384 -0.0428 -0.0043  0.7533  0.0113  0.0020
  0.0026  0.0657 -0.0586 -0.0358  0.0113  0.7291 -0.0140
 -0.0138  0.0589 -0.0035  0.0358  0.0020 -0.0140  0.6508
 
spin component  2
 
  0.6992 -0.0079  0.0115 -0.0710  0.0182  0.0557 -0.0004
 -0.0079  0.7547 -0.0021 -0.0288 -0.0022  0.0212 -0.0331
  0.0115 -0.0021  0.7683  0.0683  0.0196  0.0382  0.0235
 -0.0710 -0.0288  0.0683  0.5965  0.0445 -0.0082  0.0306
  0.0182 -0.0022  0.0196  0.0445  0.6753 -0.0068 -0.1007
  0.0557  0.0212  0.0382 -0.0082 -0.0068  0.7169  0.0139
 -0.0004 -0.0331  0.0235  0.0306 -0.1007  0.0139  0.6918
 
 occupancies and eigenvectors
 
  o =  0.4647  v = -0.1209  0.7731 -0.3033 -0.3606 -0.1538 -0.3117 -0.2117  0.0000  0.0000  0.0000  0.0000  0.0000  0.0000  0.0000      0.0000  0.0000  0.0000  0.0000  0.0000  0.0000  0.0000  0.0000  0.0000  0.0000  0.0000  0.0000  0.0000  0.0000
  o =  0.5104  v =  0.0000  0.0000  0.0000  0.0000  0.0000  0.0000  0.0000  0.3437  0.0526 -0.1467  0.7519 -0.4260 -0.0330 -0.3311      0.0000  0.0000  0.0000  0.0000  0.0000  0.0000  0.0000  0.0000  0.0000  0.0000  0.0000  0.0000  0.0000  0.0000
  o =  0.5942  v =  0.0000  0.0000  0.0000  0.0000  0.0000  0.0000  0.0000 -0.2528 -0.2176  0.2894 -0.3814 -0.5450  0.0742 -0.5975      0.0000  0.0000  0.0000  0.0000  0.0000  0.0000  0.0000  0.0000  0.0000  0.0000  0.0000  0.0000  0.0000  0.0000
  o =  0.5994  v =  0.1326 -0.1711 -0.0862 -0.6872  0.0250 -0.0735  0.6837  0.0000  0.0000  0.0000  0.0000  0.0000  0.0000  0.0000      0.0000  0.0000  0.0000  0.0000  0.0000  0.0000  0.0000  0.0000  0.0000  0.0000  0.0000  0.0000  0.0000  0.0000
  o =  0.6521  v =  0.0000  0.0000  0.0000  0.0000  0.0000  0.0000  0.0000 -0.4960 -0.1498 -0.3414  0.2389  0.1179  0.7343 -0.0697      0.0000  0.0000  0.0000  0.0000  0.0000  0.0000  0.0000  0.0000  0.0000  0.0000  0.0000  0.0000  0.0000  0.0000
  o =  0.7002  v = -0.2754  0.1394 -0.3118  0.4605 -0.5345  0.1175  0.5440  0.0000  0.0000  0.0000  0.0000  0.0000  0.0000  0.0000      0.0000  0.0000  0.0000  0.0000  0.0000  0.0000  0.0000  0.0000  0.0000  0.0000  0.0000  0.0000  0.0000  0.0000
  o =  0.7144  v =  0.3223 -0.3002 -0.5895  0.2429  0.1337 -0.6165 -0.0389  0.0000  0.0000  0.0000  0.0000  0.0000  0.0000  0.0000      0.0000  0.0000  0.0000  0.0000  0.0000  0.0000  0.0000  0.0000  0.0000  0.0000  0.0000  0.0000  0.0000  0.0000
  o =  0.7432  v =  0.1143  0.4400  0.3474  0.3500  0.5413 -0.2590  0.4359  0.0000  0.0000  0.0000  0.0000  0.0000  0.0000  0.0000      0.0000  0.0000  0.0000  0.0000  0.0000  0.0000  0.0000  0.0000  0.0000  0.0000  0.0000  0.0000  0.0000  0.0000
  o =  0.7453  v =  0.0000  0.0000  0.0000  0.0000  0.0000  0.0000  0.0000 -0.5072  0.7630  0.1586  0.1248 -0.2816 -0.0916  0.1794      0.0000  0.0000  0.0000  0.0000  0.0000  0.0000  0.0000  0.0000  0.0000  0.0000  0.0000  0.0000  0.0000  0.0000
  o =  0.7836  v =  0.0000  0.0000  0.0000  0.0000  0.0000  0.0000  0.0000 -0.4155 -0.1506  0.2520  0.3503  0.5224 -0.4301 -0.4007      0.0000  0.0000  0.0000  0.0000  0.0000  0.0000  0.0000  0.0000  0.0000  0.0000  0.0000  0.0000  0.0000  0.0000
  o =  0.7874  v = -0.7843 -0.2639  0.2226 -0.0616  0.0360 -0.5105 -0.0040  0.0000  0.0000  0.0000  0.0000  0.0000  0.0000  0.0000      0.0000  0.0000  0.0000  0.0000  0.0000  0.0000  0.0000  0.0000  0.0000  0.0000  0.0000  0.0000  0.0000  0.0000
  o =  0.7988  v =  0.0000  0.0000  0.0000  0.0000  0.0000  0.0000  0.0000  0.3722  0.5135  0.2505 -0.1181  0.3894  0.4057 -0.4526      0.0000  0.0000  0.0000  0.0000  0.0000  0.0000  0.0000  0.0000  0.0000  0.0000  0.0000  0.0000  0.0000  0.0000
  o =  0.8184  v =  0.0000  0.0000  0.0000  0.0000  0.0000  0.0000  0.0000  0.0583 -0.2427  0.7917  0.2826 -0.0619  0.3103  0.3619      0.0000  0.0000  0.0000  0.0000  0.0000  0.0000  0.0000  0.0000  0.0000  0.0000  0.0000  0.0000  0.0000  0.0000
  o =  0.8212  v =  0.3999 -0.0148  0.5344  0.0193 -0.6146 -0.4193 -0.0171  0.0000  0.0000  0.0000  0.0000  0.0000  0.0000  0.0000      0.0000  0.0000  0.0000  0.0000  0.0000  0.0000  0.0000  0.0000  0.0000  0.0000  0.0000  0.0000  0.0000  0.0000
 
atom =   6  type =  1  l = 3
 
 onsite density matrix
 
spin component  1
 
  0.6689  0.0699  0.0220 -0.0155 -0.0068 -0.0179 -0.0138
  0.0699  0.6279  0.0452  0.1672 -0.0070  0.0091 -0.0678
  0.0220  0.0452  0.5199 -0.0924 -0.0336 -0.0491 -0.0598
 -0.0155  0.1672 -0.0924  0.6391 -0.0005 -0.0192  0.0772
 -0.0068 -0.0070 -0.0336 -0.0005  0.7896 -0.0224 -0.0706
 -0.0179  0.0091 -0.0491 -0.0192 -0.0224  0.7708 -0.0567
 -0.0138 -0.0678 -0.0598  0.0772 -0.0706 -0.0567  0.5463
 
spin component  2
 
  0.6774 -0.0140  0.0131 -0.0023 -0.0067 -0.0232 -0.0350
 -0.0140  0.7681 -0.0058 -0.0356 -0.0608  0.0133 -0.0246
  0.0131 -0.0058  0.6392 -0.0533  0.0357  0.0806  0.0395
 -0.0023 -0.0356 -0.0533  0.7292  0.0237  0.0236  0.0320
 -0.0067 -0.0608  0.0357  0.0237  0.7467 -0.0933 -0.0165
 -0.0232  0.0133  0.0806  0.0236 -0.0933  0.7349 -0.0337
 -0.0350 -0.0246  0.0395  0.0320 -0.0165 -0.0337  0.7436
 
 occupancies and eigenvectors
 
  o =  0.3686  v = -0.1245  0.5840 -0.4017 -0.6047  0.0288 -0.0477  0.3368  0.0000  0.0000  0.0000  0.0000  0.0000  0.0000  0.0000      0.0000  0.0000  0.0000  0.0000  0.0000  0.0000  0.0000  0.0000  0.0000  0.0000  0.0000  0.0000  0.0000  0.0000
  o =  0.4374  v =  0.0249 -0.0819 -0.6708 -0.0036 -0.2135 -0.2236 -0.6686  0.0000  0.0000  0.0000  0.0000  0.0000  0.0000  0.0000      0.0000  0.0000  0.0000  0.0000  0.0000  0.0000  0.0000  0.0000  0.0000  0.0000  0.0000  0.0000  0.0000  0.0000
  o =  0.5148  v =  0.0000  0.0000  0.0000  0.0000  0.0000  0.0000  0.0000 -0.1981 -0.0450  0.6523  0.2890 -0.3633 -0.4857 -0.2860      0.0000  0.0000  0.0000  0.0000  0.0000  0.0000  0.0000  0.0000  0.0000  0.0000  0.0000  0.0000  0.0000  0.0000
  o =  0.6083  v =  0.7064 -0.3479 -0.4228  0.0244  0.1118  0.1322  0.4131  0.0000  0.0000  0.0000  0.0000  0.0000  0.0000  0.0000      0.0000  0.0000  0.0000  0.0000  0.0000  0.0000  0.0000  0.0000  0.0000  0.0000  0.0000  0.0000  0.0000  0.0000
  o =  0.6631  v =  0.0000  0.0000  0.0000  0.0000  0.0000  0.0000  0.0000  0.7577  0.3756  0.3280  0.3189  0.1789  0.0312  0.2063      0.0000  0.0000  0.0000  0.0000  0.0000  0.0000  0.0000  0.0000  0.0000  0.0000  0.0000  0.0000  0.0000  0.0000
  o =  0.6947  v =  0.0000  0.0000  0.0000  0.0000  0.0000  0.0000  0.0000 -0.5294  0.4416  0.1915  0.2766  0.5802  0.2400 -0.1311      0.0000  0.0000  0.0000  0.0000  0.0000  0.0000  0.0000  0.0000  0.0000  0.0000  0.0000  0.0000  0.0000  0.0000
  o =  0.7309  v = -0.6532 -0.2583 -0.4332  0.3903  0.1284  0.0402  0.3854  0.0000  0.0000  0.0000  0.0000  0.0000  0.0000  0.0000      0.0000  0.0000  0.0000  0.0000  0.0000  0.0000  0.0000  0.0000  0.0000  0.0000  0.0000  0.0000  0.0000  0.0000
  o =  0.7447  v =  0.0000  0.0000  0.0000  0.0000  0.0000  0.0000  0.0000 -0.0677 -0.0815  0.5832 -0.6914  0.1992  0.0467  0.3588      0.0000  0.0000  0.0000  0.0000  0.0000  0.0000  0.0000  0.0000  0.0000  0.0000  0.0000  0.0000  0.0000  0.0000
  o =  0.7554  v =  0.0000  0.0000  0.0000  0.0000  0.0000  0.0000  0.0000 -0.2520  0.4781 -0.2297  0.0158 -0.1882 -0.4710  0.6306      0.0000  0.0000  0.0000  0.0000  0.0000  0.0000  0.0000  0.0000  0.0000  0.0000  0.0000  0.0000  0.0000  0.0000
  o =  0.7891  v =  0.0177  0.3049 -0.1351  0.1820  0.1571  0.8777 -0.2457  0.0000  0.0000  0.0000  0.0000  0.0000  0.0000  0.0000      0.0000  0.0000  0.0000  0.0000  0.0000  0.0000  0.0000  0.0000  0.0000  0.0000  0.0000  0.0000  0.0000  0.0000
  o =  0.7910  v =  0.0000  0.0000  0.0000  0.0000  0.0000  0.0000  0.0000 -0.1917 -0.3940  0.1715  0.4641 -0.2185  0.4599  0.5513      0.0000  0.0000  0.0000  0.0000  0.0000  0.0000  0.0000  0.0000  0.0000  0.0000  0.0000  0.0000  0.0000  0.0000
  o =  0.8090  v = -0.1271 -0.2870  0.0375 -0.2642 -0.8290  0.3508  0.1416  0.0000  0.0000  0.0000  0.0000  0.0000  0.0000  0.0000      0.0000  0.0000  0.0000  0.0000  0.0000  0.0000  0.0000  0.0000  0.0000  0.0000  0.0000  0.0000  0.0000  0.0000
  o =  0.8191  v =  0.2044  0.5377 -0.0510  0.6153 -0.4612 -0.1879  0.1997  0.0000  0.0000  0.0000  0.0000  0.0000  0.0000  0.0000      0.0000  0.0000  0.0000  0.0000  0.0000  0.0000  0.0000  0.0000  0.0000  0.0000  0.0000  0.0000  0.0000  0.0000
  o =  0.8754  v =  0.0000  0.0000  0.0000  0.0000  0.0000  0.0000  0.0000 -0.0389  0.5210  0.0892 -0.2111 -0.6136  0.5195 -0.1678      0.0000  0.0000  0.0000  0.0000  0.0000  0.0000  0.0000  0.0000  0.0000  0.0000  0.0000  0.0000  0.0000  0.0000
 
    SETDIJ:  cpu time    0.0232: real time    0.0232
    TRIAL :  cpu time    0.0240: real time    0.0321
    CORREC:  cpu time    0.0612: real time    0.0612
    CHARGE:  cpu time    0.0072: real time    0.0072
    --------------------------------------------
      LOOP:  cpu time    0.1383: real time    0.1464

 eigenvalue-minimisations  :     0
 total energy-change (2. order) :-0.7269382E+04  (-0.1372772E+05)
 number of electron      78.0000005 magnetization       1.9999960
 augmentation part       22.8264003 magnetization       0.6870075

 Free energy of the ion-electron system (eV)
  ---------------------------------------------------
  alpha Z        PSCENC =       412.77266595
  Ewald energy   TEWEN  =      2536.40998733
  -Hartree energ DENC   =     -5370.57083419
[...]
 total charge-density along one line
 
 soft charge-density along one line, spin component           2
         0         1         2         3         4         5         6         7         8         9
 total charge-density along one line
 
 pseudopotential strength for first ion, spin component:           1
  7.085  -0.172   0.016   1.482   0.048  -0.006   0.806   0.009
 -0.172  -3.924  -0.008  -1.142  -0.032   0.005   0.421   0.014
  0.016  -0.008   0.915   0.068   0.038  -7.365  -0.055  -0.018
  1.482  -1.142   0.068   0.876  -0.012  -0.055  -7.398   0.016
  0.048  -0.032   0.038  -0.012   0.948  -0.018   0.016  -7.297
 -0.006   0.005  -7.365  -0.055  -0.018  18.648   0.055   0.013
  0.806   0.421  -0.055  -7.398   0.016   0.055  18.690  -0.020
  0.009   0.014  -0.018   0.016  -7.297   0.013  -0.020  18.552
  0.028  -0.007   0.013   0.002   0.006   0.007  -0.001   0.001
  0.049  -0.009   0.452   0.003   0.002   0.433  -0.002  -0.001
 -0.027   0.019  -0.004   0.521  -0.006  -0.001   0.501  -0.002
 -0.008  -0.000   0.002   0.017   0.447  -0.001   0.010   0.429
  0.014  -0.012  -0.004  -0.002   0.015   0.002  -0.002   0.007
 -0.053   0.014  -0.022  -0.003  -0.011  -0.012   0.001  -0.001
 -0.096   0.017  -0.721  -0.005  -0.003  -0.795   0.004   0.001
  0.043  -0.037   0.008  -0.832   0.011   0.001  -0.918   0.003
  0.017   0.001  -0.003  -0.028  -0.713   0.001  -0.018  -0.787
 -0.022   0.024   0.008   0.004  -0.025  -0.004   0.004  -0.012
 -0.010   0.001  -0.073  -0.003  -0.013   0.075   0.001   0.008
 -0.009   0.003  -0.011   0.021  -0.025   0.011  -0.020   0.009
  0.020  -0.003   0.077   0.073   0.018  -0.066  -0.067  -0.016
 -0.009   0.001   0.057   0.067   0.014  -0.036  -0.064  -0.015
 -0.015   0.002   0.018   0.023   0.115  -0.016  -0.016  -0.103
  0.025  -0.005   0.018  -0.011   0.003  -0.005   0.021   0.002
 -0.006   0.002  -0.001   0.006   0.006   0.001  -0.004   0.007
 -0.010   0.001  -0.072  -0.003  -0.012   0.074   0.001   0.008
 -0.008   0.003  -0.011   0.021  -0.023   0.011  -0.020   0.008
  0.020  -0.003   0.076   0.072   0.017  -0.065  -0.067  -0.016
 -0.009   0.001   0.055   0.066   0.014  -0.036  -0.063  -0.015
 -0.015   0.002   0.017   0.022   0.113  -0.016  -0.016  -0.102
  0.025  -0.004   0.017  -0.011   0.003  -0.005   0.021   0.003
 -0.006   0.002  -0.001   0.005   0.006   0.001  -0.004   0.007
 pseudopotential strength for first ion, spin component:           2
  7.445  -0.383   0.015   1.479   0.049  -0.007   0.797   0.007
 -0.383  -3.800  -0.005  -1.136  -0.030   0.003   0.419   0.013
  0.015  -0.005   1.136  -0.001  -0.030  -7.420  -0.057  -0.017
  1.479  -1.136  -0.001   1.084  -0.046  -0.057  -7.453   0.014
  0.049  -0.030  -0.030  -0.046   1.019  -0.017   0.014  -7.364
 -0.007   0.003  -7.420  -0.057  -0.017  18.639   0.078   0.034
  0.797   0.419  -0.057  -7.453   0.014   0.078  18.684  -0.007
  0.007   0.013  -0.017   0.014  -7.364   0.034  -0.007  18.598
 -0.023   0.013   0.015  -0.001   0.003   0.006  -0.002  -0.002
 -0.003   0.014   0.448   0.010  -0.001   0.427  -0.001  -0.002
  0.000   0.007   0.001   0.517  -0.005   0.001   0.493  -0.000
 -0.034   0.011  -0.001   0.020   0.453  -0.002   0.011   0.428
 -0.043   0.012  -0.005   0.002   0.013   0.001   0.001   0.005
  0.040  -0.027  -0.025   0.001  -0.006  -0.011   0.003   0.004
 -0.001  -0.027  -0.716  -0.018   0.001  -0.784   0.003   0.003
 -0.006  -0.012  -0.001  -0.826   0.009  -0.003  -0.905   0.000
  0.064  -0.023   0.001  -0.033  -0.723   0.003  -0.019  -0.786
  0.082  -0.023   0.009  -0.003  -0.023  -0.003  -0.001  -0.008
  0.005  -0.001   0.049   0.005   0.031  -0.042  -0.005  -0.044
  0.013  -0.002   0.029  -0.013   0.055  -0.028  -0.004  -0.068
 -0.020   0.004   0.052  -0.024  -0.026  -0.046  -0.002   0.026
  0.013  -0.003  -0.073   0.093  -0.034   0.078  -0.074   0.029
 -0.030   0.004  -0.026   0.006   0.032   0.026  -0.006  -0.029
 -0.013   0.003  -0.043  -0.005   0.028   0.055   0.003  -0.020
  0.006  -0.001  -0.017  -0.001  -0.032   0.029   0.003   0.025
  0.005  -0.001   0.047   0.005   0.030  -0.042  -0.005  -0.044
  0.013  -0.002   0.029  -0.013   0.055  -0.028  -0.003  -0.068
 -0.019   0.003   0.051  -0.023  -0.026  -0.046  -0.002   0.026
  0.012  -0.003  -0.072   0.091  -0.033   0.078  -0.073   0.028
 -0.029   0.004  -0.026   0.005   0.031   0.026  -0.006  -0.028
 -0.013   0.003  -0.043  -0.006   0.026   0.054   0.004  -0.020
  0.006  -0.001  -0.016  -0.001  -0.032   0.029   0.003   0.025
 total augmentation occupancy for first ion, spin component:           1
  1.367   1.158  -0.001   0.061   0.012  -0.002   0.020   0.009   0.008   0.028  -0.329  -0.007   0.003   0.005   0.010  -0.123
  1.158   0.987   0.000   0.075   0.011  -0.001   0.030   0.008   0.008   0.022  -0.245  -0.003   0.002   0.005   0.008  -0.092
 -0.001   0.000   0.015   0.001   0.000   0.010  -0.001  -0.000  -0.004  -0.014   0.015   0.010  -0.002  -0.002  -0.005   0.006
  0.061   0.075   0.001   0.330   0.015   0.001   0.203   0.010   0.039   0.014   0.039   0.027   0.005   0.013   0.005   0.014
  0.012   0.011   0.000   0.015   0.021   0.000   0.009   0.014  -0.002  -0.001  -0.013   0.001  -0.001  -0.001  -0.001  -0.005
 -0.002  -0.001   0.010   0.001   0.000   0.008  -0.000  -0.000  -0.002  -0.009   0.012   0.008  -0.001  -0.001  -0.003   0.005
  0.020   0.030  -0.001   0.203   0.009  -0.000   0.126   0.006   0.024   0.011   0.023   0.016   0.002   0.008   0.004   0.008
  0.009   0.008  -0.000   0.010   0.014  -0.000   0.006   0.010  -0.000   0.000  -0.011  -0.000  -0.000  -0.000   0.000  -0.004
  0.008   0.008  -0.004   0.039  -0.002  -0.002   0.024  -0.000   0.056   0.013  -0.009   0.006   0.015   0.021   0.005  -0.004
  0.028   0.022  -0.014   0.014  -0.001  -0.009   0.011   0.000   0.013   0.071  -0.026  -0.017   0.011   0.006   0.025  -0.010
 -0.329  -0.245   0.015   0.039  -0.013   0.012   0.023  -0.011  -0.009  -0.026   0.653   0.039   0.027   0.000  -0.006   0.242
 -0.007  -0.003   0.010   0.027   0.001   0.008   0.016  -0.000   0.006  -0.017   0.039   0.050  -0.001   0.002  -0.006   0.014
  0.003   0.002  -0.002   0.005  -0.001  -0.001   0.002  -0.000   0.015   0.011   0.027  -0.001   0.054   0.007   0.003   0.011
  0.005   0.005  -0.002   0.013  -0.001  -0.001   0.008  -0.000   0.021   0.006   0.000   0.002   0.007   0.008   0.002  -0.000
  0.010   0.008  -0.005   0.005  -0.001  -0.003   0.004   0.000   0.005   0.025  -0.006  -0.006   0.003   0.002   0.009  -0.002
 -0.123  -0.092   0.006   0.014  -0.005   0.005   0.008  -0.004  -0.004  -0.010   0.242   0.014   0.011  -0.000  -0.002   0.090
 -0.003  -0.001   0.003   0.011  -0.000   0.003   0.006  -0.000   0.002  -0.006   0.019   0.018  -0.000   0.001  -0.002   0.007
 -0.001  -0.001  -0.000   0.001  -0.000  -0.000   0.000   0.000   0.005   0.003   0.011   0.000   0.019   0.002   0.001   0.005
 -0.152  -0.128  -0.083   0.171   0.018  -0.062   0.118   0.031   0.002   0.152  -0.133  -0.080   0.062   0.007   0.055  -0.047
 -0.143  -0.120   0.023   0.306  -0.030   0.017   0.196  -0.019   0.029  -0.083  -0.255   0.007  -0.075  -0.005  -0.030  -0.105
 -0.040  -0.014  -0.068  -0.002   0.060  -0.038   0.003   0.051   0.030   0.348  -0.205   0.035   0.175   0.017   0.091  -0.093
 -0.035   0.042  -0.052   0.880   0.143  -0.024   0.525   0.088   0.178   0.038   0.191   0.220   0.020   0.056   0.003   0.033
 -0.289  -0.245   0.018   0.508   0.005   0.009   0.329   0.028   0.131  -0.023  -0.068   0.145   0.052   0.047  -0.015  -0.034
  0.023  -0.007  -0.042  -0.186   0.011  -0.031  -0.103   0.010  -0.093   0.106   0.097  -0.041   0.388  -0.026   0.029   0.035
 -0.178  -0.126  -0.015   0.038  -0.008  -0.007   0.014  -0.010   0.150   0.070   0.268  -0.081   0.216   0.052   0.012   0.097
  0.132   0.107   0.062  -0.112  -0.003   0.047  -0.076  -0.018  -0.028  -0.110   0.062   0.080  -0.029  -0.015  -0.040   0.022
  0.102   0.083  -0.006  -0.202   0.019  -0.004  -0.130   0.011  -0.007   0.048   0.141   0.014   0.039   0.006   0.016   0.060
  0.061   0.036   0.074   0.008  -0.042   0.046  -0.000  -0.036  -0.025  -0.259   0.153  -0.007  -0.122  -0.014  -0.069   0.070
  0.035  -0.037   0.023  -0.899  -0.131   0.005  -0.533  -0.078  -0.168   0.008  -0.150  -0.218  -0.040  -0.054   0.010  -0.030
  0.290   0.236  -0.012  -0.409   0.021  -0.006  -0.260  -0.002  -0.102   0.012  -0.068  -0.099  -0.043  -0.037   0.009  -0.019
 -0.017   0.009   0.026   0.214  -0.011   0.020   0.123  -0.010   0.091  -0.077  -0.051   0.043  -0.271   0.028  -0.020  -0.019
  0.165   0.116   0.007   0.014   0.011   0.002   0.015   0.010  -0.103  -0.054  -0.303   0.072  -0.165  -0.037  -0.010  -0.111
 total augmentation occupancy for first ion, spin component:           2
 -0.042  -0.033   0.010   0.058   0.013   0.005   0.034   0.008  -0.004  -0.005  -0.069   0.013  -0.029  -0.002  -0.001  -0.026
 -0.033  -0.027   0.008   0.041   0.011   0.004   0.024   0.007  -0.002  -0.003  -0.044   0.009  -0.021  -0.001  -0.000  -0.017
  0.010   0.008   0.002  -0.007   0.002   0.002  -0.006   0.001  -0.002  -0.005   0.026   0.005   0.003  -0.000  -0.002   0.010
  0.058   0.041  -0.007  -0.038  -0.024  -0.005  -0.017  -0.015  -0.004   0.011   0.027  -0.006   0.003  -0.003   0.004   0.008
  0.013   0.011   0.002  -0.024  -0.003   0.002  -0.015  -0.003  -0.008  -0.005   0.016   0.006   0.002  -0.003  -0.002   0.006
  0.005   0.004   0.002  -0.005   0.002   0.001  -0.004   0.001  -0.002  -0.003   0.021   0.003   0.003  -0.001  -0.001   0.008
  0.034   0.024  -0.006  -0.017  -0.015  -0.004  -0.007  -0.009  -0.001   0.009   0.009  -0.003   0.002  -0.001   0.003   0.002
  0.008   0.007   0.001  -0.015  -0.003   0.001  -0.009  -0.002  -0.005  -0.003   0.011   0.004   0.001  -0.002  -0.001   0.004
 -0.004  -0.002  -0.002  -0.004  -0.008  -0.002  -0.001  -0.005  -0.013  -0.007   0.043  -0.004  -0.011  -0.005  -0.001   0.015
 -0.005  -0.003  -0.005   0.011  -0.005  -0.003   0.009  -0.003  -0.007   0.019  -0.072  -0.017  -0.011  -0.003   0.006  -0.028
 -0.069  -0.044   0.026   0.027   0.016   0.021   0.009   0.011   0.043  -0.072   0.099   0.029   0.008   0.012  -0.028   0.036
  0.013   0.009   0.005  -0.006   0.006   0.003  -0.003   0.004  -0.004  -0.017   0.029   0.005  -0.008  -0.001  -0.005   0.011
 -0.029  -0.021   0.003   0.003   0.002   0.003   0.002   0.001  -0.011  -0.011   0.008  -0.008  -0.006  -0.005  -0.005   0.003
 -0.002  -0.001  -0.000  -0.003  -0.003  -0.001  -0.001  -0.002  -0.005  -0.003   0.012  -0.001  -0.005  -0.002  -0.001   0.004
 -0.001  -0.000  -0.002   0.004  -0.002  -0.001   0.003  -0.001  -0.001   0.006  -0.028  -0.005  -0.005  -0.001   0.002  -0.011
 -0.026  -0.017   0.010   0.008   0.006   0.008   0.002   0.004   0.015  -0.028   0.036   0.011   0.003   0.004  -0.011   0.013
  0.004   0.002   0.002  -0.002   0.003   0.001  -0.001   0.002  -0.001  -0.007   0.011   0.001  -0.002  -0.000  -0.002   0.004
 -0.011  -0.008   0.002  -0.001   0.001   0.001  -0.000   0.000  -0.005  -0.005   0.004  -0.002  -0.002  -0.002  -0.002   0.001
 -0.363  -0.266   0.031   0.169  -0.085   0.029   0.110  -0.063   0.007   0.104  -0.211   0.024  -0.081  -0.000   0.030  -0.074
  0.152   0.071  -0.031  -0.153   0.026  -0.022  -0.079   0.020   0.007   0.099  -0.024   0.050   0.055   0.013   0.033  -0.020
  0.056   0.053  -0.017  -0.099   0.047  -0.003  -0.059   0.028  -0.235   0.185  -0.353  -0.138  -0.091  -0.091   0.058  -0.147
  0.235   0.159   0.060  -0.294  -0.061   0.048  -0.165  -0.036  -0.033   0.001   0.716   0.080   0.067  -0.014  -0.000   0.250
 -0.037  -0.033  -0.028  -0.119  -0.182  -0.020  -0.065  -0.125   0.026  -0.068   0.473   0.138  -0.003   0.005  -0.012   0.169
 -0.186  -0.140   0.045   0.195   0.060   0.038   0.121   0.031  -0.027  -0.046  -0.309  -0.073   0.126  -0.015  -0.032  -0.108
 -0.007  -0.024   0.026   0.048   0.009   0.017   0.032   0.010  -0.107  -0.034  -0.214  -0.050   0.169  -0.036  -0.012  -0.082
  0.340   0.247  -0.007  -0.125   0.076  -0.010  -0.081   0.055  -0.023  -0.092   0.044  -0.016   0.051  -0.007  -0.030   0.014
 -0.143  -0.073   0.020   0.159  -0.022   0.014   0.089  -0.016  -0.014  -0.072   0.131  -0.041  -0.030  -0.011  -0.022   0.057
 -0.102  -0.084   0.021   0.089  -0.028   0.008   0.053  -0.016   0.145  -0.152   0.346   0.112   0.070   0.057  -0.048   0.142
 -0.220  -0.151  -0.066   0.328   0.054  -0.052   0.189   0.035   0.056   0.049  -0.685  -0.084  -0.024   0.023   0.018  -0.240
  0.052   0.043   0.011   0.103   0.138   0.009   0.059   0.094  -0.013   0.068  -0.361  -0.098  -0.001  -0.000   0.015  -0.129
  0.130   0.096  -0.033  -0.144  -0.046  -0.027  -0.087  -0.023   0.024   0.036   0.231   0.055  -0.105   0.011   0.025   0.080
  0.025   0.034  -0.015  -0.064  -0.015  -0.009  -0.038  -0.013   0.068   0.029   0.199   0.033  -0.131   0.023   0.011   0.076


------------------------ aborting loop EDIFF was not reached (unconverged)  ----------------------------


 -----------------------------------------------------------------------------
|                                                                             |
|           W    W    AA    RRRRR   N    N  II  N    N   GGGG   !!!           |
|           W    W   A  A   R    R  NN   N  II  NN   N  G    G  !!!           |
|           W    W  A    A  R    R  N N  N  II  N N  N  G       !!!           |
|           W WW W  AAAAAA  RRRRR   N  N N  II  N  N N  G  GGG   !            |
|           WW  WW  A    A  R   R   N   NN  II  N   NN  G    G                |
|           W    W  A    A  R    R  N    N  II  N    N   GGGG   !!!           |
|                                                                             |
|     The electronic self-consistency was not achieved in the given           |
|     number of steps (NELM). The forces and other quantities evaluated       |
|     might not be reliable so examine the results carefully. If you find     |
|     spurious results, we suggest increasing NELM, if you were close to      |
|     convergence or switching to a different ALGO or adjusting the           |
|     density mixing parameters otherwise.                                    |
|                                                                             |
 -----------------------------------------------------------------------------

    FORLOC:  cpu time    0.0010: real time    0.0010
    FORNL :  cpu time    0.0218: real time    0.0218
    STRESS:  cpu time    0.0551: real time    0.0551
    FORCOR:  cpu time    0.0225: real time    0.0226
    OFIELD:  cpu time    0.0002: real time    0.0002

  FORCE on cell =-STRESS in cart. coord.  units (eV):
  Direction    XX          YY          ZZ          XY          YZ          ZX
  --------------------------------------------------------------------------------------
  Alpha Z   412.77267   412.77267   412.77267
  Ewald    6568.99620  7280.39220-11312.98120  -520.12688   451.09441  -146.19648
  Hartree 13363.54690 13607.97551-11657.83082  -224.96736   162.29032   -36.26742
  E(xc)    -344.90656  -344.65367  -344.36330    -0.10582     0.25730     0.02775
  Local  -19138.31359-19964.28661 21492.50909   665.46270  -533.94531   142.01373
  n-local   807.68557   903.48526   808.99081    36.30352    41.84822    21.92253
  augment   260.60121   185.07455   301.53941    52.24969   -46.08440    18.88713
  Kinetic   353.26930   363.32858   475.07738    -2.92206    -1.80966    -3.19509
  Fock        0.00000     0.00000     0.00000     0.00000     0.00000     0.00000
  -------------------------------------------------------------------------------------
  Total    2283.65169  2444.08848   175.71403     5.89379    73.65088    -2.80785
  in kB   16356.77909 17505.91631  1258.56129    42.21456   527.52845   -20.11139
  external pressure =    11707.09 kB  Pullay stress =        0.00 kB


 VOLUME and BASIS-vectors are now :
 -----------------------------------------------------------------------------
  energy-cutoff  :      370.00
  volume of cell :      223.69
      direct lattice vectors                 reciprocal lattice vectors
     1.882736988 -3.260996120  0.000000000     0.265570817 -0.153327383  0.000000000
     1.882736988  3.260996120  0.000000000     0.265570817  0.153327383  0.000000000
     0.000000000  0.000000000 18.216826690     0.000000000  0.000000000  0.054894303

  length of vectors
     3.765473976  3.765473976 18.216826690     0.306654765  0.306654765  0.054894303


 FORCES acting on ions:
    Electron-Ion                     Ewald-Force                    Non-Local-Force
 -----------------------------------------------------------------------------------------------
   0.153E+02 0.123E+02 0.222E+04   -.184E+02 -.142E+02 -.148E+04   0.321E+01 0.219E+01 0.157E+03
   0.381E+02 0.522E+01 -.260E+04   -.268E+02 -.478E+01 0.232E+04   -.852E+01 0.850E+00 -.168E+03
   0.187E+00 0.158E+01 0.130E+04   0.198E+01 0.156E+01 -.148E+04   -.729E+01 -.161E+02 0.189E+02
   -.269E+03 0.611E+03 -.487E+02   0.346E+03 -.786E+03 0.195E+03   -.564E+02 0.127E+03 0.312E+03
   0.273E+02 -.131E+02 0.178E+04   -.183E+02 0.142E+02 -.105E+04   0.417E+01 0.540E+00 0.338E+03
   0.198E+03 -.610E+03 -.129E+04   -.285E+03 0.789E+03 0.149E+04   0.273E+02 -.886E+02 0.132E+03
 -----------------------------------------------------------------------------------------------
   0.983E+01 0.659E+01 0.136E+04   0.000E+00 0.000E+00 -.227E-12   -.375E+02 0.255E+02 0.790E+03
 
 
 POSITION                                       TOTAL-FORCE (eV/Angst)
 -----------------------------------------------------------------------------------
      2.71836     -0.51517      9.38633         4.715533     -5.017394    541.109773
      0.87296      0.16990     16.94442         7.429887     -4.049184   -802.335102
      0.68696      0.41851      6.37267        -0.539429    -18.290154   -518.478278
      1.89311     -0.74982     13.77369        24.693852    -53.424921    100.480504
      1.86736     -2.98099     12.05885        17.801750     -3.685071    710.198205
      1.37493      0.39658     14.33135       -54.101594     84.466724    -30.975102
 -----------------------------------------------------------------------------------
    total drift:                              -27.673566     32.061610   2150.350561


--------------------------------------------------------------------------------------------------------



  FREE ENERGIE OF THE ION-ELECTRON SYSTEM (eV)
  ---------------------------------------------------
  free  energy   TOTEN  =      1419.13996147 eV

  energy  without entropy=     1419.13996147  energy(sigma->0) =     1419.13996147
 


--------------------------------------------------------------------------------------------------------


    POTLOK:  cpu time    0.0480: real time    0.0540


--------------------------------------------------------------------------------------------------------


 writing wavefunctions
     LOOP+:  cpu time   10.2524: real time   11.1123
    4ORBIT:  cpu time    0.0000: real time    0.0000

 total amount of memory used by VASP MPI-rank0    33851. kBytes
=======================================================================

   base      :      30000. kBytes
   nonl-proj :         80. kBytes
   fftplans  :        960. kBytes
   grid      :       2363. kBytes
   one-center:         49. kBytes
   wavefun   :        399. kBytes
 
  
  
 General timing and accounting informations for this job:
 ========================================================
  
                  Total CPU time used (sec):       12.768
                            User time (sec):       10.862
                          System time (sec):        1.906
                         Elapsed time (sec):       15.251
  
                   Maximum memory used (kb):      220812.
                   Average memory used (kb):          N/A
  
                          Minor page faults:        67017
                          Major page faults:            0
                 Voluntary context switches:         2988
