 vasp.6.2.1 16May21 (build Sep 27 2021 21:11:04) gamma-only                     
  
 executed on             LinuxIFC date 2023.04.29  11:47:15
 running   24 mpi-ranks, with    1 threads/rank
 distrk:  each k-point on   24 cores,    1 groups
 distr:  one band on NCORE=   8 cores,    3 groups


--------------------------------------------------------------------------------------------------------


 INCAR:
   GGA = PE
   ISTART = 1
   ISPIN = 2
   ENCUT = 370
   ENAUG = 740
   EDIFF = 1E-4
   IBRION = 2
   POTIM = 0.2
   ALGO = All
   NSW = 0
   EDIFFG = -1E-2
   ISMEAR = 0
   SIGMA = 0.01
   ISIF = 1
   LREAL = .FALSE.
   ISYM = 0
   PREC = High
   LVTOT = .TRUE.
   NGXF = 200
   NGYF = 200
   NGZF = 200
   LHFCALC = .TRUE.
   HFSCREEN = 0.2
   TIME = 0.4
   NCORE = 8
   NELM = 60
   NWRITE = 2
   SYMPREC = 1.0e-8

 POTCAR:    PAW_PBE C 08Apr2002                   
 -----------------------------------------------------------------------------
|                                                                             |
|           W    W    AA    RRRRR   N    N  II  N    N   GGGG   !!!           |
|           W    W   A  A   R    R  NN   N  II  NN   N  G    G  !!!           |
|           W    W  A    A  R    R  N N  N  II  N N  N  G       !!!           |
|           W WW W  AAAAAA  RRRRR   N  N N  II  N  N N  G  GGG   !            |
|           WW  WW  A    A  R   R   N   NN  II  N   NN  G    G                |
|           W    W  A    A  R    R  N    N  II  N    N   GGGG   !!!           |
|                                                                             |
|     You use a magnetic or noncollinear calculation, but did not specify     |
|     the initial magnetic moment with the MAGMOM tag. Note that a            |
|     default of 1 will be used for all atoms. This ferromagnetic setup       |
|     may break the symmetry of the crystal, in particular it may rule        |
|     out finding an antiferromagnetic solution. Thence, we recommend         |
|     setting the initial magnetic moment manually or verifying carefully     |
|     that this magnetic setup is desired.                                    |
|                                                                             |
 -----------------------------------------------------------------------------

 WARNING: For LVTOT=.TRUE., VASP.5.x writes the TOTAL local potential to the
     file LOCPOT. If you want only the Hartree contributions, use LVHAR=.TRUE.
     instead. 

 POTCAR:    PAW_PBE C 08Apr2002                   
   SHA256 =  253f7b50bb8d59471dbedb8285d89021f4a42ed1a2c5d38a03a736e69125dd95 C/POTCAR              
   COPYR  = (c) Copyright 08Apr2002 Georg Kresse                                                    
   COPYR  = This file is part of the software VASP. Any use, copying, and all other rights are regul
   COPYR  = If you do not have a valid VASP license, you may not use, copy or distribute this file. 
   VRHFIN =C: s2p2                                                                                  
   LEXCH  = PE                                                                                      
   EATOM  =   147.1560 eV,   10.8157 Ry                                                             
                                                                                                    
   TITEL  = PAW_PBE C 08Apr2002                                                                     
   LULTRA =        F    use ultrasoft PP ?                                                          
   IUNSCR =        1    unscreen: 0-lin 1-nonlin 2-no                                               
   RPACOR =    1.200    partial core radius                                                         
   POMASS =   12.011; ZVAL   =    4.000    mass and valenz                                          
   RCORE  =    1.500    outmost cutoff radius                                                       
   RWIGS  =    1.630; RWIGS  =    0.863    wigner-seitz radius (au A)                               
   ENMAX  =  400.000; ENMIN  =  300.000 eV                                                          
   ICORE  =        2    local potential                                                             
   LCOR   =        T    correct aug charges                                                         
   LPAW   =        T    paw PP                                                                      
   EAUG   =  644.873                                                                                
   DEXC   =    0.000                                                                                
   RMAX   =    1.529    core radius for proj-oper                                                   
   RAUG   =    1.300    factor for augmentation sphere                                              
   RDEP   =    1.501    radius for radial grids                                                     
   RDEPT  =    1.300    core radius for aug-charge                                                  
                                                                                                    
   Atomic configuration                                                                             
    4 entries                                                                                       
     n  l   j            E        occ.                                                              
     1  0  0.50      -273.3789   2.0000                                                             
     2  0  0.50       -13.7508   2.0000                                                             
     2  1  0.50        -5.2854   2.0000                                                             
     3  2  1.50        -5.4423   0.0000                                                             
   Description                                                                                      
     l       E           TYP  RCUT    TYP  RCUT                                                     
     0    -13.7508458     23  1.200                                                                 
     0     -8.2022199     23  1.200                                                                 
     1     -5.2854383     23  1.500                                                                 
     1     34.0145650     23  1.500                                                                 
     2     -5.4423304      7  1.500                                                                 
  local pseudopotential read in
  partial core-charges read in
  partial kinetic energy density read in
  atomic valenz-charges read in
  non local Contribution for L=           0  read in
    real space projection operators read in
  non local Contribution for L=           0  read in
    real space projection operators read in
  non local Contribution for L=           1  read in
    real space projection operators read in
  non local Contribution for L=           1  read in
    real space projection operators read in
    PAW grid and wavefunctions read in
 
   number of l-projection  operators is LMAX  =           4
   number of lm-projection operators is LMMAX =           8
 
 -----------------------------------------------------------------------------
|                                                                             |
|               ----> ADVICE to this user running VASP <----                  |
|                                                                             |
|     You have a (more or less) 'large supercell' and for larger cells it     |
|     might be more efficient to use real-space projection operators.         |
|     Therefore, try LREAL= Auto in the INCAR file.                           |
|     Mind: For very accurate calculation, you might also keep the            |
|     reciprocal projection scheme (i.e. LREAL=.FALSE.).                      |
|                                                                             |
 -----------------------------------------------------------------------------

  PAW_PBE C 08Apr2002                   :
 energy of atom  1       EATOM= -147.1560
 kinetic energy error for atom=    0.0545 (will be added to EATOM!!)
 
 
 POSCAR: 3D\Atomistic
  positions in direct lattice
  velocities in cartesian coordinates
  No initial velocities read in
 exchange correlation table for  LEXCH =        8
   RHO(1)=    0.500       N(1)  =     2000
   RHO(2)=  100.500       N(2)  =     4000
 


--------------------------------------------------------------------------------------------------------


 ion  position               nearest neighbor table
   1  0.000  0.000  0.000-  72 1.53 165 1.53 199 1.53   6 1.53
   2  0.000  0.167  0.167-   7 1.53  21 1.54  24 1.54   6 1.54
   3  0.167  0.000  0.167-   5 1.53  55 1.54  56 1.54   6 1.54
   4  0.167  0.167  0.000-   8 1.53 149 1.54 151 1.54   6 1.54
   5  0.250  0.083  0.250-   3 1.53  81 1.53  76 1.54  10 1.54
   6  0.083  0.083  0.083-   1 1.53   2 1.54   3 1.54   4 1.54
   7  0.083  0.250  0.250-   2 1.53  97 1.53  76 1.54  27 1.54
   8  0.250  0.250  0.083-   4 1.53  33 1.53  27 1.54  10 1.54
   9  0.333  0.000  0.000-  56 1.53 149 1.53 207 1.54  14 1.54
  10  0.333  0.167  0.167-  15 1.54   5 1.54   8 1.54  14 1.54
  11  0.500  0.000  0.167-  13 1.53  63 1.53  64 1.54  14 1.54
  12  0.500  0.167  0.000-  16 1.53 159 1.53 157 1.54  14 1.54
  13  0.583  0.083  0.250-  11 1.53  84 1.54  89 1.54  18 1.54
  14  0.417  0.083  0.083-   9 1.54  11 1.54  12 1.54  10 1.54
  15  0.417  0.250  0.250-  35 1.53  84 1.53  10 1.54 105 1.54
  16  0.583  0.250  0.083-  12 1.53  35 1.54  41 1.54  18 1.54
  17  0.667  0.000  0.000- 215 1.53  22 1.53 157 1.54  64 1.54
  18  0.667  0.167  0.167-  23 1.53  22 1.54  13 1.54  16 1.54
  19  0.833  0.000  0.167-  71 1.53  22 1.54  21 1.54  72 1.54
  20  0.833  0.167  0.000- 167 1.53  22 1.54  24 1.54 165 1.54
  21  0.917  0.083  0.250-  73 1.53   2 1.54  19 1.54  92 1.54
  22  0.750  0.083  0.083-  17 1.53  19 1.54  20 1.54  18 1.54
  23  0.750  0.250  0.250-  18 1.53  43 1.53  92 1.53 113 1.53
  24  0.917  0.250  0.083-  25 1.53   2 1.54  20 1.54  43 1.54
  25  0.000  0.333  0.000-  24 1.53 151 1.53 189 1.54  30 1.54
  26  0.000  0.500  0.167-  31 1.53  45 1.53  48 1.54  30 1.54
  27  0.167  0.333  0.167-  29 1.54   7 1.54   8 1.54  30 1.54
  28  0.167  0.500  0.000-  32 1.53 173 1.53 175 1.54  30 1.54
  29  0.250  0.417  0.250-  34 1.53 100 1.53  27 1.54 105 1.54
  30  0.083  0.417  0.083-  25 1.54  26 1.54  28 1.54  27 1.54
  31  0.083  0.583  0.250-  26 1.53 100 1.54 121 1.54  51 1.54
  32  0.250  0.583  0.083-  28 1.53  34 1.54  57 1.54  51 1.54
  33  0.333  0.333  0.000-   8 1.53 159 1.54 173 1.54  38 1.54
  34  0.333  0.500  0.167-  29 1.53  39 1.54  32 1.54  38 1.54
  35  0.500  0.333  0.167-  15 1.53  37 1.54  16 1.54  38 1.54
  36  0.500  0.500  0.000-  40 1.53 181 1.53 183 1.53  38 1.53
  37  0.583  0.417  0.250- 108 1.53  35 1.54  42 1.54 113 1.54
  38  0.417  0.417  0.083-  36 1.53  33 1.54  35 1.54  34 1.54
  39  0.417  0.583  0.250- 108 1.53  34 1.54  59 1.54 129 1.54
  40  0.583  0.583  0.083-  36 1.53  42 1.54  59 1.54  65 1.54
  41  0.667  0.333  0.000- 167 1.53  46 1.54  16 1.54 181 1.54
  42  0.667  0.500  0.167-  47 1.53  46 1.54  37 1.54  40 1.54
  43  0.833  0.333  0.167-  23 1.53  46 1.54  45 1.54  24 1.54
  44  0.833  0.500  0.000- 191 1.53  46 1.53  48 1.54 189 1.54
  45  0.917  0.417  0.250-  26 1.53  97 1.54 116 1.54  43 1.54
  46  0.750  0.417  0.083-  44 1.53  41 1.54  42 1.54  43 1.54
  47  0.750  0.583  0.250-  42 1.53 116 1.53  67 1.54 137 1.54
  48  0.917  0.583  0.083-  26 1.54  44 1.54  49 1.54  67 1.54
  49  0.000  0.667  0.000- 213 1.53  54 1.53 175 1.54  48 1.54
  50  0.000  0.833  0.167-  69 1.53  54 1.54  55 1.54  72 1.54
  51  0.167  0.667  0.167-  53 1.53  54 1.54  31 1.54  32 1.54
  52  0.167  0.833  0.000- 197 1.53  54 1.54  56 1.54 199 1.54
  53  0.250  0.750  0.250-  51 1.53  58 1.53 124 1.53 129 1.53
  54  0.083  0.750  0.083-  49 1.53  50 1.54  52 1.54  51 1.54
  55  0.083  0.917  0.250-  73 1.53   3 1.54  50 1.54 124 1.54
  56  0.250  0.917  0.083-   9 1.53   3 1.54  52 1.54  58 1.54
  57  0.333  0.667  0.000- 197 1.53  62 1.54  32 1.54 183 1.54
  58  0.333  0.833  0.167-  53 1.53  62 1.54  63 1.54  56 1.54
  59  0.500  0.667  0.167-  61 1.53  62 1.54  39 1.54  40 1.54
  60  0.500  0.833  0.000- 205 1.53  62 1.53  64 1.54 207 1.54
  61  0.583  0.750  0.250-  59 1.53 132 1.53  66 1.54 137 1.54
  62  0.417  0.750  0.083-  60 1.53  57 1.54  59 1.54  58 1.54
  63  0.417  0.917  0.250-  11 1.53  81 1.54 132 1.54  58 1.54
  64  0.583  0.917  0.083-  11 1.54  17 1.54  60 1.54  66 1.54
  65  0.667  0.667  0.000-  70 1.53 191 1.54 205 1.54  40 1.54
  66  0.667  0.833  0.167-  70 1.54  61 1.54  71 1.54  64 1.54
  67  0.833  0.667  0.167-  70 1.54  69 1.54  47 1.54  48 1.54
  68  0.833  0.833  0.000-  70 1.53 213 1.54 215 1.54  72 1.54
  69  0.917  0.750  0.250-  50 1.53 121 1.53  67 1.54 140 1.54
  70  0.750  0.750  0.083-  65 1.53  68 1.53  67 1.54  66 1.54
  71  0.750  0.917  0.250-  19 1.53  89 1.53  66 1.54 140 1.54
  72  0.917  0.917  0.083-   1 1.53  19 1.54  50 1.54  68 1.54
  73  0.000  0.000  0.333-  21 1.53  55 1.53 144 1.54  78 1.54
  74  0.000  0.167  0.500-  79 1.53  96 1.53  93 1.54  78 1.54
  75  0.167  0.000  0.500-  77 1.53 128 1.53 127 1.54  78 1.54
  76  0.167  0.167  0.333-  80 1.54   7 1.54   5 1.54  78 1.54
  77  0.250  0.083  0.583-  75 1.53  82 1.54 153 1.54 148 1.54
  78  0.083  0.083  0.417-  73 1.54  74 1.54  75 1.54  76 1.54
  79  0.083  0.250  0.583-  74 1.53  99 1.54 169 1.54 148 1.54
  80  0.250  0.250  0.417-  82 1.53  99 1.53  76 1.54 105 1.54
  81  0.333  0.000  0.333-   5 1.53  63 1.54 128 1.54  86 1.54
  82  0.333  0.167  0.500-  80 1.53  87 1.54  77 1.54  86 1.54
  83  0.500  0.000  0.500-  85 1.53 135 1.53 136 1.53  86 1.53
  84  0.500  0.167  0.333-  15 1.53  88 1.54  13 1.54  86 1.54
  85  0.583  0.083  0.583-  83 1.53  90 1.54 156 1.54 161 1.54
  86  0.417  0.083  0.417-  83 1.53  81 1.54  82 1.54  84 1.54
  87  0.417  0.250  0.583- 107 1.53  82 1.54 156 1.54 177 1.54
  88  0.583  0.250  0.417- 107 1.53  84 1.54  90 1.54 113 1.54
  89  0.667  0.000  0.333-  71 1.53  94 1.54  13 1.54 136 1.54
  90  0.667  0.167  0.500-  95 1.53  94 1.54  88 1.54  85 1.54
  91  0.833  0.000  0.500- 143 1.53  94 1.53  93 1.54 144 1.54
  92  0.833  0.167  0.333-  23 1.53  94 1.54  96 1.54  21 1.54
  93  0.917  0.083  0.583-  74 1.54  91 1.54 145 1.54 164 1.54
  94  0.750  0.083  0.417-  91 1.53  89 1.54  90 1.54  92 1.54
  95  0.750  0.250  0.583-  90 1.53 115 1.53 164 1.54 185 1.54
  96  0.917  0.250  0.417-  74 1.53  97 1.54 115 1.54  92 1.54
  97  0.000  0.333  0.333-   7 1.53  45 1.54  96 1.54 102 1.54
  98  0.000  0.500  0.500- 103 1.53 117 1.53 120 1.53 102 1.53
  99  0.167  0.333  0.500-  80 1.53 101 1.54  79 1.54 102 1.54
 100  0.167  0.500  0.333-  29 1.53 104 1.54  31 1.54 102 1.54
 101  0.250  0.417  0.583- 106 1.53  99 1.54 172 1.54 177 1.54
 102  0.083  0.417  0.417-  98 1.53  97 1.54  99 1.54 100 1.54
 103  0.083  0.583  0.583-  98 1.53 123 1.54 172 1.54 193 1.54
 104  0.250  0.583  0.417- 106 1.53 100 1.54 123 1.54 129 1.54
 105  0.333  0.333  0.333-  15 1.54  29 1.54  80 1.54 110 1.54
 106  0.333  0.500  0.500- 104 1.53 101 1.53 111 1.54 110 1.54
 107  0.500  0.333  0.500-  88 1.53  87 1.53 109 1.54 110 1.54
 108  0.500  0.500  0.333-  37 1.53  39 1.53 112 1.54 110 1.54
 109  0.583  0.417  0.583- 107 1.54 180 1.54 114 1.54 185 1.54
 110  0.417  0.417  0.417- 106 1.54 107 1.54 108 1.54 105 1.54
 111  0.417  0.583  0.583- 106 1.54 180 1.54 131 1.54 201 1.54
 112  0.583  0.583  0.417- 108 1.54 114 1.54 131 1.54 137 1.54
 113  0.667  0.333  0.333-  23 1.53 118 1.54  88 1.54  37 1.54
 114  0.667  0.500  0.500- 119 1.53 118 1.53 112 1.54 109 1.54
 115  0.833  0.333  0.500-  95 1.53 118 1.54  96 1.54 117 1.54
 116  0.833  0.500  0.333-  47 1.53 118 1.54  45 1.54 120 1.54
 117  0.917  0.417  0.583-  98 1.53 115 1.54 169 1.54 188 1.54
 118  0.750  0.417  0.417- 114 1.53 115 1.54 116 1.54 113 1.54
 119  0.750  0.583  0.583- 114 1.53 139 1.54 188 1.54 209 1.54
 120  0.917  0.583  0.417-  98 1.53 116 1.54 121 1.54 139 1.54
 121  0.000  0.667  0.333-  69 1.53 126 1.54  31 1.54 120 1.54
 122  0.000  0.833  0.500- 141 1.53 126 1.53 127 1.54 144 1.54
 123  0.167  0.667  0.500- 125 1.53 126 1.54 104 1.54 103 1.54
 124  0.167  0.833  0.333-  53 1.53 126 1.54 128 1.54  55 1.54
 125  0.250  0.750  0.583- 123 1.53 130 1.53 196 1.54 201 1.54
 126  0.083  0.750  0.417- 122 1.53 121 1.54 123 1.54 124 1.54
 127  0.083  0.917  0.583-  75 1.54 122 1.54 145 1.54 196 1.54
 128  0.250  0.917  0.417-  75 1.53  81 1.54 130 1.54 124 1.54
 129  0.333  0.667  0.333-  53 1.53 134 1.54 104 1.54  39 1.54
 130  0.333  0.833  0.500- 125 1.53 134 1.54 128 1.54 135 1.54
 131  0.500  0.667  0.500- 133 1.53 134 1.53 112 1.54 111 1.54
 132  0.500  0.833  0.333-  61 1.53 134 1.54  63 1.54 136 1.54
 133  0.583  0.750  0.583- 131 1.53 138 1.54 204 1.54 209 1.54
 134  0.417  0.750  0.417- 131 1.53 130 1.54 132 1.54 129 1.54
 135  0.417  0.917  0.583-  83 1.53 130 1.54 153 1.54 204 1.54
 136  0.583  0.917  0.417-  83 1.53  89 1.54 132 1.54 138 1.54
 137  0.667  0.667  0.333- 142 1.54  61 1.54  47 1.54 112 1.54
 138  0.667  0.833  0.500- 142 1.53 133 1.54 143 1.54 136 1.54
 139  0.833  0.667  0.500- 142 1.53 141 1.54 119 1.54 120 1.54
 140  0.833  0.833  0.333- 142 1.54  71 1.54  69 1.54 144 1.54
 141  0.917  0.750  0.583- 122 1.53 139 1.54 193 1.54 212 1.54
 142  0.750  0.750  0.417- 138 1.53 139 1.53 137 1.54 140 1.54
 143  0.750  0.917  0.583-  91 1.53 138 1.54 161 1.54 212 1.54
 144  0.917  0.917  0.417-  73 1.54  91 1.54 122 1.54 140 1.54
 145  0.000  0.000  0.667- 216 1.53 150 1.53  93 1.54 127 1.54
 146  0.000  0.167  0.833- 168 1.53 150 1.54 151 1.54 165 1.54
 147  0.167  0.000  0.833- 200 1.53 150 1.54 149 1.54 199 1.54
 148  0.167  0.167  0.667- 152 1.53 150 1.54  77 1.54  79 1.54
 149  0.250  0.083  0.917-   9 1.53   4 1.54 147 1.54 154 1.54
 150  0.083  0.083  0.750- 145 1.53 146 1.54 147 1.54 148 1.54
 151  0.083  0.250  0.917-  25 1.53   4 1.54 146 1.54 171 1.54
 152  0.250  0.250  0.750- 148 1.53 154 1.53 171 1.53 177 1.53
 153  0.333  0.000  0.667- 200 1.53 158 1.54  77 1.54 135 1.54
 154  0.333  0.167  0.833- 152 1.53 158 1.54 159 1.54 149 1.54
 155  0.500  0.000  0.833- 208 1.53 158 1.53 157 1.54 207 1.54
 156  0.500  0.167  0.667- 160 1.53 158 1.54  87 1.54  85 1.54
 157  0.583  0.083  0.917-  12 1.54  17 1.54 155 1.54 162 1.54
 158  0.417  0.083  0.750- 155 1.53 153 1.54 156 1.54 154 1.54
 159  0.417  0.250  0.917-  12 1.53  33 1.54 179 1.54 154 1.54
 160  0.583  0.250  0.750- 156 1.53 179 1.53 162 1.54 185 1.54
 161  0.667  0.000  0.667- 166 1.53 143 1.54 208 1.54  85 1.54
 162  0.667  0.167  0.833- 166 1.54 167 1.54 160 1.54 157 1.54
 163  0.833  0.000  0.833- 166 1.53 215 1.54 216 1.54 165 1.54
 164  0.833  0.167  0.667- 166 1.54  95 1.54 168 1.54  93 1.54
 165  0.917  0.083  0.917-   1 1.53  20 1.54 146 1.54 163 1.54
 166  0.750  0.083  0.750- 161 1.53 163 1.53 162 1.54 164 1.54
 167  0.750  0.250  0.917-  20 1.53  41 1.53 162 1.54 187 1.54
 168  0.917  0.250  0.750- 146 1.53 169 1.53 164 1.54 187 1.54
 169  0.000  0.333  0.667- 168 1.53 174 1.54  79 1.54 117 1.54
 170  0.000  0.500  0.833- 192 1.53 174 1.53 175 1.54 189 1.54
 171  0.167  0.333  0.833- 152 1.53 174 1.54 173 1.54 151 1.54
 172  0.167  0.500  0.667- 176 1.53 174 1.54 101 1.54 103 1.54
 173  0.250  0.417  0.917-  28 1.53  33 1.54 178 1.54 171 1.54
 174  0.083  0.417  0.750- 170 1.53 169 1.54 172 1.54 171 1.54
 175  0.083  0.583  0.917-  28 1.54  49 1.54 170 1.54 195 1.54
 176  0.250  0.583  0.750- 172 1.53 178 1.53 195 1.54 201 1.54
 177  0.333  0.333  0.667- 152 1.53 182 1.54  87 1.54 101 1.54
 178  0.333  0.500  0.833- 176 1.53 182 1.54 173 1.54 183 1.54
 179  0.500  0.333  0.833- 160 1.53 182 1.54 159 1.54 181 1.54
 180  0.500  0.500  0.667- 184 1.53 182 1.53 109 1.54 111 1.54
 181  0.583  0.417  0.917-  36 1.53  41 1.54 179 1.54 186 1.54
 182  0.417  0.417  0.750- 180 1.53 179 1.54 178 1.54 177 1.54
 183  0.417  0.583  0.917-  36 1.53  57 1.54 178 1.54 203 1.54
 184  0.583  0.583  0.750- 180 1.53 186 1.54 203 1.54 209 1.54
 185  0.667  0.333  0.667- 190 1.54  95 1.54 160 1.54 109 1.54
 186  0.667  0.500  0.833- 190 1.53 184 1.54 191 1.54 181 1.54
 187  0.833  0.333  0.833- 190 1.54 167 1.54 168 1.54 189 1.54
 188  0.833  0.500  0.667- 190 1.53 119 1.54 192 1.54 117 1.54
 189  0.917  0.417  0.917-  25 1.54 170 1.54  44 1.54 187 1.54
 190  0.750  0.417  0.750- 186 1.53 188 1.53 187 1.54 185 1.54
 191  0.750  0.583  0.917-  44 1.53  65 1.54 186 1.54 211 1.54
 192  0.917  0.583  0.750- 170 1.53 188 1.54 193 1.54 211 1.54
 193  0.000  0.667  0.667- 198 1.53 192 1.54 141 1.54 103 1.54
 194  0.000  0.833  0.833- 198 1.53 213 1.54 216 1.54 199 1.54
 195  0.167  0.667  0.833- 198 1.54 197 1.54 176 1.54 175 1.54
 196  0.167  0.833  0.667- 198 1.54 125 1.54 200 1.54 127 1.54
 197  0.250  0.750  0.917-  52 1.53  57 1.53 195 1.54 202 1.54
 198  0.083  0.750  0.750- 193 1.53 194 1.53 195 1.54 196 1.54
 199  0.083  0.917  0.917-   1 1.53  52 1.54 147 1.54 194 1.54
 200  0.250  0.917  0.750- 147 1.53 153 1.53 196 1.54 202 1.54
 201  0.333  0.667  0.667- 206 1.54 125 1.54 176 1.54 111 1.54
 202  0.333  0.833  0.833- 206 1.54 197 1.54 200 1.54 207 1.54
 203  0.500  0.667  0.833- 206 1.53 205 1.54 184 1.54 183 1.54
 204  0.500  0.833  0.667- 206 1.53 133 1.54 208 1.54 135 1.54
 205  0.583  0.750  0.917-  60 1.53  65 1.54 203 1.54 210 1.54
 206  0.417  0.750  0.750- 203 1.53 204 1.53 201 1.54 202 1.54
 207  0.417  0.917  0.917-   9 1.54 155 1.54  60 1.54 202 1.54
 208  0.583  0.917  0.750- 155 1.53 161 1.54 204 1.54 210 1.54
 209  0.667  0.667  0.667- 214 1.53 133 1.54 184 1.54 119 1.54
 210  0.667  0.833  0.833- 214 1.53 208 1.54 205 1.54 215 1.54
 211  0.833  0.667  0.833- 214 1.53 192 1.54 213 1.54 191 1.54
 212  0.833  0.833  0.667- 214 1.53 143 1.54 141 1.54 216 1.54
 213  0.917  0.750  0.917-  49 1.53  68 1.54 194 1.54 211 1.54
 214  0.750  0.750  0.750- 209 1.53 210 1.53 211 1.53 212 1.53
 215  0.750  0.917  0.917-  17 1.53  68 1.54 163 1.54 210 1.54
 216  0.917  0.917  0.750- 145 1.53 163 1.54 194 1.54 212 1.54
 

IMPORTANT INFORMATION: All symmetrisations will be switched off!
NOSYMM: (Re-)initialisation of all symmetry stuff for point group C_1.


----------------------------------------------------------------------------------------

                                     Primitive cell                                     

  volume of cell :    1202.8529

  direct lattice vectors                    reciprocal lattice vectors
    10.635000229  0.000000000  0.000000000     0.094029147  0.000000000  0.000000000
     0.000000000 10.635000229  0.000000000     0.000000000  0.094029147  0.000000000
     0.000000000  0.000000000 10.635000229     0.000000000  0.000000000  0.094029147

  length of vectors
    10.635000229 10.635000229 10.635000229     0.094029147  0.094029147  0.094029147

  position of ions in fractional coordinates (direct lattice)
     0.000000000  0.000000000  0.000000000
     0.000000000  0.166669995  0.166669995
     0.166669995  0.000000000  0.166669995
     0.166669995  0.166669995  0.000000000
     0.250000000  0.083329998  0.250000000
     0.083329998  0.083329998  0.083329998
     0.083329998  0.250000000  0.250000000
     0.250000000  0.250000000  0.083329998
     0.333330005  0.000000000  0.000000000
     0.333330005  0.166669995  0.166669995
     0.500000000  0.000000000  0.166669995
     0.500000000  0.166669995  0.000000000
     0.583329976  0.083329998  0.250000000
     0.416669995  0.083329998  0.083329998
     0.416669995  0.250000000  0.250000000
     0.583329976  0.250000000  0.083329998
     0.666670024  0.000000000  0.000000000
     0.666670024  0.166669995  0.166669995
     0.833329976  0.000000000  0.166669995
     0.833329976  0.166669995  0.000000000
     0.916670024  0.083329998  0.250000000
     0.750000000  0.083329998  0.083329998
     0.750000000  0.250000000  0.250000000
     0.916670024  0.250000000  0.083329998
     0.000000000  0.333330005  0.000000000
     0.000000000  0.500000000  0.166669995
     0.166669995  0.333330005  0.166669995
     0.166669995  0.500000000  0.000000000
     0.250000000  0.416669995  0.250000000
     0.083329998  0.416669995  0.083329998
     0.083329998  0.583329976  0.250000000
     0.250000000  0.583329976  0.083329998
     0.333330005  0.333330005  0.000000000
     0.333330005  0.500000000  0.166669995
     0.500000000  0.333330005  0.166669995
     0.500000000  0.500000000  0.000000000
     0.583329976  0.416669995  0.250000000
     0.416669995  0.416669995  0.083329998
     0.416669995  0.583329976  0.250000000
     0.583329976  0.583329976  0.083329998
     0.666670024  0.333330005  0.000000000
     0.666670024  0.500000000  0.166669995
     0.833329976  0.333330005  0.166669995
     0.833329976  0.500000000  0.000000000
     0.916670024  0.416669995  0.250000000
     0.750000000  0.416669995  0.083329998
     0.750000000  0.583329976  0.250000000
     0.916670024  0.583329976  0.083329998
     0.000000000  0.666670024  0.000000000
     0.000000000  0.833329976  0.166669995
     0.166669995  0.666670024  0.166669995
     0.166669995  0.833329976  0.000000000
     0.250000000  0.750000000  0.250000000
     0.083329998  0.750000000  0.083329998
     0.083329998  0.916670024  0.250000000
     0.250000000  0.916670024  0.083329998
     0.333330005  0.666670024  0.000000000
     0.333330005  0.833329976  0.166669995
     0.500000000  0.666670024  0.166669995
     0.500000000  0.833329976  0.000000000
     0.583329976  0.750000000  0.250000000
     0.416669995  0.750000000  0.083329998
     0.416669995  0.916670024  0.250000000
     0.583329976  0.916670024  0.083329998
     0.666670024  0.666670024  0.000000000
     0.666670024  0.833329976  0.166669995
     0.833329976  0.666670024  0.166669995
     0.833329976  0.833329976  0.000000000
     0.916670024  0.750000000  0.250000000
     0.750000000  0.750000000  0.083329998
     0.750000000  0.916670024  0.250000000
     0.916670024  0.916670024  0.083329998
     0.000000000  0.000000000  0.333330005
     0.000000000  0.166669995  0.500000000
     0.166669995  0.000000000  0.500000000
     0.166669995  0.166669995  0.333330005
     0.250000000  0.083329998  0.583329976
     0.083329998  0.083329998  0.416669995
     0.083329998  0.250000000  0.583329976
     0.250000000  0.250000000  0.416669995
     0.333330005  0.000000000  0.333330005
     0.333330005  0.166669995  0.500000000
     0.500000000  0.000000000  0.500000000
     0.500000000  0.166669995  0.333330005
     0.583329976  0.083329998  0.583329976
     0.416669995  0.083329998  0.416669995
     0.416669995  0.250000000  0.583329976
     0.583329976  0.250000000  0.416669995
     0.666670024  0.000000000  0.333330005
     0.666670024  0.166669995  0.500000000
     0.833329976  0.000000000  0.500000000
     0.833329976  0.166669995  0.333330005
     0.916670024  0.083329998  0.583329976
     0.750000000  0.083329998  0.416669995
     0.750000000  0.250000000  0.583329976
     0.916670024  0.250000000  0.416669995
     0.000000000  0.333330005  0.333330005
     0.000000000  0.500000000  0.500000000
     0.166669995  0.333330005  0.500000000
     0.166669995  0.500000000  0.333330005
     0.250000000  0.416669995  0.583329976
     0.083329998  0.416669995  0.416669995
     0.083329998  0.583329976  0.583329976
     0.250000000  0.583329976  0.416669995
     0.333330005  0.333330005  0.333330005
     0.333330005  0.500000000  0.500000000
     0.500000000  0.333330005  0.500000000
     0.500000000  0.500000000  0.333330005
     0.583329976  0.416669995  0.583329976
     0.416669995  0.416669995  0.416669995
     0.416669995  0.583329976  0.583329976
     0.583329976  0.583329976  0.416669995
     0.666670024  0.333330005  0.333330005
     0.666670024  0.500000000  0.500000000
     0.833329976  0.333330005  0.500000000
     0.833329976  0.500000000  0.333330005
     0.916670024  0.416669995  0.583329976
     0.750000000  0.416669995  0.416669995
     0.750000000  0.583329976  0.583329976
     0.916670024  0.583329976  0.416669995
     0.000000000  0.666670024  0.333330005
     0.000000000  0.833329976  0.500000000
     0.166669995  0.666670024  0.500000000
     0.166669995  0.833329976  0.333330005
     0.250000000  0.750000000  0.583329976
     0.083329998  0.750000000  0.416669995
     0.083329998  0.916670024  0.583329976
     0.250000000  0.916670024  0.416669995
     0.333330005  0.666670024  0.333330005
     0.333330005  0.833329976  0.500000000
     0.500000000  0.666670024  0.500000000
     0.500000000  0.833329976  0.333330005
     0.583329976  0.750000000  0.583329976
     0.416669995  0.750000000  0.416669995
     0.416669995  0.916670024  0.583329976
     0.583329976  0.916670024  0.416669995
     0.666670024  0.666670024  0.333330005
     0.666670024  0.833329976  0.500000000
     0.833329976  0.666670024  0.500000000
     0.833329976  0.833329976  0.333330005
     0.916670024  0.750000000  0.583329976
     0.750000000  0.750000000  0.416669995
     0.750000000  0.916670024  0.583329976
     0.916670024  0.916670024  0.416669995
     0.000000000  0.000000000  0.666670024
     0.000000000  0.166669995  0.833329976
     0.166669995  0.000000000  0.833329976
     0.166669995  0.166669995  0.666670024
     0.250000000  0.083329998  0.916670024
     0.083329998  0.083329998  0.750000000
     0.083329998  0.250000000  0.916670024
     0.250000000  0.250000000  0.750000000
     0.333330005  0.000000000  0.666670024
     0.333330005  0.166669995  0.833329976
     0.500000000  0.000000000  0.833329976
     0.500000000  0.166669995  0.666670024
     0.583329976  0.083329998  0.916670024
     0.416669995  0.083329998  0.750000000
     0.416669995  0.250000000  0.916670024
     0.583329976  0.250000000  0.750000000
     0.666670024  0.000000000  0.666670024
     0.666670024  0.166669995  0.833329976
     0.833329976  0.000000000  0.833329976
     0.833329976  0.166669995  0.666670024
     0.916670024  0.083329998  0.916670024
     0.750000000  0.083329998  0.750000000
     0.750000000  0.250000000  0.916670024
     0.916670024  0.250000000  0.750000000
     0.000000000  0.333330005  0.666670024
     0.000000000  0.500000000  0.833329976
     0.166669995  0.333330005  0.833329976
     0.166669995  0.500000000  0.666670024
     0.250000000  0.416669995  0.916670024
     0.083329998  0.416669995  0.750000000
     0.083329998  0.583329976  0.916670024
     0.250000000  0.583329976  0.750000000
     0.333330005  0.333330005  0.666670024
     0.333330005  0.500000000  0.833329976
     0.500000000  0.333330005  0.833329976
     0.500000000  0.500000000  0.666670024
     0.583329976  0.416669995  0.916670024
     0.416669995  0.416669995  0.750000000
     0.416669995  0.583329976  0.916670024
     0.583329976  0.583329976  0.750000000
     0.666670024  0.333330005  0.666670024
     0.666670024  0.500000000  0.833329976
     0.833329976  0.333330005  0.833329976
     0.833329976  0.500000000  0.666670024
     0.916670024  0.416669995  0.916670024
     0.750000000  0.416669995  0.750000000
     0.750000000  0.583329976  0.916670024
     0.916670024  0.583329976  0.750000000
     0.000000000  0.666670024  0.666670024
     0.000000000  0.833329976  0.833329976
     0.166669995  0.666670024  0.833329976
     0.166669995  0.833329976  0.666670024
     0.250000000  0.750000000  0.916670024
     0.083329998  0.750000000  0.750000000
     0.083329998  0.916670024  0.916670024
     0.250000000  0.916670024  0.750000000
     0.333330005  0.666670024  0.666670024
     0.333330005  0.833329976  0.833329976
     0.500000000  0.666670024  0.833329976
     0.500000000  0.833329976  0.666670024
     0.583329976  0.750000000  0.916670024
     0.416669995  0.750000000  0.750000000
     0.416669995  0.916670024  0.916670024
     0.583329976  0.916670024  0.750000000
     0.666670024  0.666670024  0.666670024
     0.666670024  0.833329976  0.833329976
     0.833329976  0.666670024  0.833329976
     0.833329976  0.833329976  0.666670024
     0.916670024  0.750000000  0.916670024
     0.750000000  0.750000000  0.750000000
     0.750000000  0.916670024  0.916670024
     0.916670024  0.916670024  0.750000000

  ion indices of the primitive-cell ions
   primitive index   ion index
                 1           1
                 2           2
                 3           3
                 4           4
                 5           5
                 6           6
                 7           7
                 8           8
                 9           9
                10          10
                11          11
                12          12
                13          13
                14          14
                15          15
                16          16
                17          17
                18          18
                19          19
                20          20
                21          21
                22          22
                23          23
                24          24
                25          25
                26          26
                27          27
                28          28
                29          29
                30          30
                31          31
                32          32
                33          33
                34          34
                35          35
                36          36
                37          37
                38          38
                39          39
                40          40
                41          41
                42          42
                43          43
                44          44
                45          45
                46          46
                47          47
                48          48
                49          49
                50          50
                51          51
                52          52
                53          53
                54          54
                55          55
                56          56
                57          57
                58          58
                59          59
                60          60
                61          61
                62          62
                63          63
                64          64
                65          65
                66          66
                67          67
                68          68
                69          69
                70          70
                71          71
                72          72
                73          73
                74          74
                75          75
                76          76
                77          77
                78          78
                79          79
                80          80
                81          81
                82          82
                83          83
                84          84
                85          85
                86          86
                87          87
                88          88
                89          89
                90          90
                91          91
                92          92
                93          93
                94          94
                95          95
                96          96
                97          97
                98          98
                99          99
               100         100
               101         101
               102         102
               103         103
               104         104
               105         105
               106         106
               107         107
               108         108
               109         109
               110         110
               111         111
               112         112
               113         113
               114         114
               115         115
               116         116
               117         117
               118         118
               119         119
               120         120
               121         121
               122         122
               123         123
               124         124
               125         125
               126         126
               127         127
               128         128
               129         129
               130         130
               131         131
               132         132
               133         133
               134         134
               135         135
               136         136
               137         137
               138         138
               139         139
               140         140
               141         141
               142         142
               143         143
               144         144
               145         145
               146         146
               147         147
               148         148
               149         149
               150         150
               151         151
               152         152
               153         153
               154         154
               155         155
               156         156
               157         157
               158         158
               159         159
               160         160
               161         161
               162         162
               163         163
               164         164
               165         165
               166         166
               167         167
               168         168
               169         169
               170         170
               171         171
               172         172
               173         173
               174         174
               175         175
               176         176
               177         177
               178         178
               179         179
               180         180
               181         181
               182         182
               183         183
               184         184
               185         185
               186         186
               187         187
               188         188
               189         189
               190         190
               191         191
               192         192
               193         193
               194         194
               195         195
               196         196
               197         197
               198         198
               199         199
               200         200
               201         201
               202         202
               203         203
               204         204
               205         205
               206         206
               207         207
               208         208
               209         209
               210         210
               211         211
               212         212
               213         213
               214         214
               215         215
               216         216

----------------------------------------------------------------------------------------

 
 
 KPOINTS: 1 x 1 x 1 k-mesh (automatic generation o

Automatic generation of k-mesh.
 Grid dimensions read from file:
 generate k-points for:    1    1    1

 Generating k-lattice:

  Cartesian coordinates                     Fractional coordinates (reciprocal lattice)
     0.094029147  0.000000000  0.000000000     1.000000000  0.000000000  0.000000000
     0.000000000  0.094029147  0.000000000     0.000000000  1.000000000  0.000000000
     0.000000000  0.000000000  0.094029147     0.000000000  0.000000000  1.000000000

  Length of vectors
     0.094029147  0.094029147  0.094029147

  Shift w.r.t. Gamma in fractional coordinates (k-lattice)
     0.000000000  0.000000000  0.000000000

 
 Subroutine IBZKPT returns following result:
 ===========================================
 
 Found      1 irreducible k-points:
 
 Following reciprocal coordinates:
            Coordinates               Weight
  0.000000  0.000000  0.000000      1.000000
 
 Following cartesian coordinates:
            Coordinates               Weight
  0.000000  0.000000  0.000000      1.000000
 
 
 Subroutine IBZKPT_HF returns following result:
 ==============================================
 
 Found      1 k-points in 1st BZ
 the following      1 k-points will be used (e.g. in the exchange kernel)
 Following reciprocal coordinates:   # in IRBZ
  0.000000  0.000000  0.000000    1.00000000   1 t-inv F


--------------------------------------------------------------------------------------------------------




 Dimension of arrays:
   k-points           NKPTS =      1   k-points in BZ     NKDIM =      1   number of bands    NBANDS=    651
   number of dos      NEDOS =    301   number of ions     NIONS =    216
   non local maximal  LDIM  =      4   non local SUM 2l+1 LMDIM =      8
   total plane-waves  NPLWV = 343000
   max r-space proj   IRMAX =      1   max aug-charges    IRDMAX=  10009
   dimension x,y,z NGX =    70 NGY =   70 NGZ =   70
   dimension x,y,z NGXF=   200 NGYF=  200 NGZF=  200
   support grid    NGXF=   200 NGYF=  200 NGZF=  200
   ions per type =             216
   NGX,Y,Z   is equivalent  to a cutoff of  10.94, 10.94, 10.94 a.u.
   NGXF,Y,Z  is equivalent  to a cutoff of  31.26, 31.26, 31.26 a.u.

 SYSTEM =  unknown system                          
 POSCAR =  3D\Atomistic                            

 Startparameter for this run:
   NWRITE =      2    write-flag & timer
   PREC   = high      normal or accurate (medium, high low for compatibility)
   ISTART =      1    job   : 0-new  1-cont  2-samecut
   ICHARG =      0    charge: 1-file 2-atom 10-const
   ISPIN  =      2    spin polarized calculation?
   LNONCOLLINEAR =      F non collinear calculations
   LSORBIT =      F    spin-orbit coupling
   INIWAV =      1    electr: 0-lowe 1-rand  2-diag
   LASPH  =      F    aspherical Exc in radial PAW
 Electronic Relaxation 1
   ENCUT  =  370.0 eV  27.19 Ry    5.21 a.u.  16.68 16.68 16.68*2*pi/ulx,y,z
   ENINI  =  370.0     initial cutoff
   ENAUG  =  740.0 eV  augmentation charge cutoff
   NELM   =     60;   NELMIN=  2; NELMDL=  0     # of ELM steps 
   EDIFF  = 0.1E-03   stopping-criterion for ELM
   LREAL  =      F    real-space projection
   NLSPLINE    = F    spline interpolate recip. space projectors
   LCOMPAT=      F    compatible to vasp.4.4
   GGA_COMPAT  = T    GGA compatible to vasp.4.4-vasp.4.6
   LMAXPAW     = -100 max onsite density
   LMAXMIX     =    2 max onsite mixed and CHGCAR
   VOSKOWN=      0    Vosko Wilk Nusair interpolation
   ROPT   =    0.00000
 Ionic relaxation
   EDIFFG = -.1E-01   stopping-criterion for IOM
   NSW    =      0    number of steps for IOM
   NBLOCK =      1;   KBLOCK =      1    inner block; outer block 
   IBRION =     -1    ionic relax: 0-MD 1-quasi-New 2-CG
   NFREE  =      1    steps in history (QN), initial steepest desc. (CG)
   ISIF   =      1    stress and relaxation
   IWAVPR =     10    prediction:  0-non 1-charg 2-wave 3-comb
   ISYM   =      0    0-nonsym 1-usesym 2-fastsym
   LCORR  =      T    Harris-Foulkes like correction to forces

   POTIM  = 0.2000    time-step for ionic-motion
   TEIN   =    0.0    initial temperature
   TEBEG  =    0.0;   TEEND  =   0.0 temperature during run
   SMASS  =  -3.00    Nose mass-parameter (am)
   estimated Nose-frequenzy (Omega)   =  0.10E-29 period in steps = 0.31E+47 mass=  -0.258E-26a.u.
   SCALEE = 1.0000    scale energy and forces
   NPACO  =    256;   APACO  = 16.0  distance and # of slots for P.C.
   PSTRESS=    0.0 pullay stress

  Mass of Ions in am
   POMASS =  12.01
  Ionic Valenz
   ZVAL   =   4.00
  Atomic Wigner-Seitz radii
   RWIGS  =  -1.00
  virtual crystal weights 
   VCA    =   1.00
   NELECT =     864.0000    total number of electrons
   NUPDOWN=      -1.0000    fix difference up-down

 DOS related values:
   EMIN   =  10.00;   EMAX   =-10.00  energy-range for DOS
   EFERMI =   0.00
   ISMEAR =     0;   SIGMA  =   0.01  broadening in eV -4-tet -1-fermi 0-gaus

 Electronic relaxation 2 (details)
   IALGO  =     58    algorithm
   LDIAG  =      T    sub-space diagonalisation (order eigenvalues)
   LSUBROT=      F    optimize rotation matrix (better conditioning)
   TURBO    =      0    0=normal 1=particle mesh
   IRESTART =      0    0=no restart 2=restart with 2 vectors
   NREBOOT  =      0    no. of reboots
   NMIN     =      0    reboot dimension
   EREF     =   0.00    reference energy to select bands
   IMIX   =      4    mixing-type and parameters
     AMIX     =   0.40;   BMIX     =  1.00
     AMIX_MAG =   1.60;   BMIX_MAG =  1.00
     AMIN     =   0.10
     WC   =   100.;   INIMIX=   1;  MIXPRE=   1;  MAXMIX= -45

 Intra band minimization:
   WEIMIN = 0.0000     energy-eigenvalue tresh-hold
   EBREAK =  0.38E-07  absolut break condition
   DEPER  =   0.30     relativ break condition  

   TIME   =   0.40     timestep for ELM

  volume/ion in A,a.u.               =       5.57        37.58
  Fermi-wavevector in a.u.,A,eV,Ry     =   1.466139  2.770602 29.246601  2.149565
  Thomas-Fermi vector in A             =   2.581912
 
 Write flags
   LWAVE        =      T    write WAVECAR
   LDOWNSAMPLE  =      F    k-point downsampling of WAVECAR
   LCHARG       =      T    write CHGCAR
   LVTOT        =      T    write LOCPOT, total local potential
   LVHAR        =      F    write LOCPOT, Hartree potential only
   LELF         =      F    write electronic localiz. function (ELF)
   LORBIT       =      0    0 simple, 1 ext, 2 COOP (PROOUT), +10 PAW based schemes


 Dipole corrections
   LMONO  =      F    monopole corrections only (constant potential shift)
   LDIPOL =      F    correct potential (dipole corrections)
   IDIPOL =      0    1-x, 2-y, 3-z, 4-all directions 
   EPSILON=  1.0000000 bulk dielectric constant

 Exchange correlation treatment:
   GGA     =    PE    GGA type
   LEXCH   =     8    internal setting for exchange type
   VOSKOWN=      0    Vosko Wilk Nusair interpolation
   EXXOEP  =     0    0=HF, 1=EXX-LHF (local Hartree Fock) 2=EXX OEP
   LHFCALC =     T    Hartree Fock is set to
   LSYMGRAD=     F    symmetrize gradient (conserves proper symmetry)
   PRECFOCK=normal    Normal, Fast or Accurate (Low or Medium for compatibility)
   LRHFCALC=     F    long range Hartree Fock
   LRSCOR  =     F    long range correlation only (use DFT for short range part)
   LTHOMAS =     F    Thomas Fermi screening in HF
   LMODELHF=     F    short range full HF, long range fraction AEXX
   LFOCKACE=     T    use Adeptively-Compressed-Exchange operator
   ENCUT4O =  -1.0   cutoff for four orbital integrals eV
   LMAXFOCK=     4    L truncation for augmentation on plane wave grid
   LMAXFOCKAE=  -1    L truncation for all-electron charge restoration on plane wave grid
   NMAXFOCKAE=   1    number of basis functions for all-electron charge restoration
   LFOCKAEDFT=     F  apply the AE augmentation even for DFT
   NKREDX  =     1    reduce k-point grid by
   NKREDY  =     1    reduce k-point grid by
   NKREDZ  =     1    reduce k-point grid by
   SHIFTRED=     F    shift reduced grid of Gamma
   HFKIDENT=     F    idential grid for each k-point
   ODDONLY =     F    use only odd q-grid points
   EVENONLY=     F    use only even q-grid points
   HFALPHA =   -1.0000 decay constant for conv. correction
   MCALPHA =    0.0000 extent of test-charge in conv. correction in multipole expansion
   AEXX    =    0.2500 exact exchange contribution
   HFSCREEN=    0.2000 screening length (either q_TF or 0.3 A-1)
   HFSCREENC=   0.2000 screening length for correlation (either q_TF or 0.3 A-1)
   HFRCUT  =    0.0000 spherical cutoff for potential kernel
   ALDAX   =    0.7500 LDA exchange part
   AGGAX   =    0.7500 GGA exchange part
   ALDAC   =    1.0000 LDA correlation
   AGGAC   =    1.0000 GGA correlation
   ENCUTFOCK=  -1.0 apply spherical cutoff to Coloumb kernel
   NBANDSGWLOW=     1    first orbital included in HF term
   NBLOCK_FOCK=    64    blocking factor in FOCK_ACC
 Linear response parameters
   LEPSILON=     F    determine dielectric tensor
   LRPA    =     F    only Hartree local field effects (RPA)
   LNABLA  =     F    use nabla operator in PAW spheres
   LVEL    =     F    velocity operator in full k-point grid
   LINTERFAST=   F  fast interpolation
   KINTER  =     0    interpolate to denser k-point grid
   CSHIFT  =0.1000    complex shift for real part using Kramers Kronig
   OMEGAMAX=  -1.0    maximum frequency
   DEG_THRESHOLD= 0.2000000E-02 threshold for treating states as degnerate
   RTIME   =   -0.100 relaxation time in fs
  (WPLASMAI=    0.000 imaginary part of plasma frequency in eV, 0.658/RTIME)
   DFIELD  = 0.0000000 0.0000000 0.0000000 field for delta impulse in time
 
 Orbital magnetization related:
   ORBITALMAG=     F  switch on orbital magnetization
   LCHIMAG   =     F  perturbation theory with respect to B field
   DQ        =  0.001000  dq finite difference perturbation B field
   LLRAUG    =     F  two centre corrections for induced B field



--------------------------------------------------------------------------------------------------------


 Static calculation
 charge density and potential will be updated during run
 spin polarized calculation
 Conjugate gradient for all bands (Freysoldt, et al. PRB 79, 241103 (2009))
 preconditioned conjugated gradient                                        
 perform sub-space diagonalisation
    before iterative eigenvector-optimisation
 modified Broyden-mixing scheme, WC =      100.0
 initial mixing is a Kerker type mixing with AMIX =  0.4000 and BMIX =      1.0000
 Hartree-type preconditioning will be used
 using additional bands          219
 reciprocal scheme for non local part
 use partial core corrections
 no Harris-corrections to forces 
 use gradient corrections 
 use of overlap-Matrix (Vanderbilt PP)
 Gauss-broadening in eV      SIGMA  =   0.01


--------------------------------------------------------------------------------------------------------


  energy-cutoff  :      370.00
  volume of cell :     1202.85
      direct lattice vectors                 reciprocal lattice vectors
    10.635000229  0.000000000  0.000000000     0.094029147  0.000000000  0.000000000
     0.000000000 10.635000229  0.000000000     0.000000000  0.094029147  0.000000000
     0.000000000  0.000000000 10.635000229     0.000000000  0.000000000  0.094029147

  length of vectors
    10.635000229 10.635000229 10.635000229     0.094029147  0.094029147  0.094029147


 
 old parameters found on file WAVECAR:
  energy-cutoff  :      370.00
  volume of cell :     1202.85
      direct lattice vectors                 reciprocal lattice vectors
    10.635000229  0.000000000  0.000000000     0.094029147  0.000000000  0.000000000
     0.000000000 10.635000229  0.000000000     0.000000000  0.094029147  0.000000000
     0.000000000  0.000000000 10.635000229     0.000000000  0.000000000  0.094029147

  length of vectors

 
 k-points in units of 2pi/SCALE and weight: 1 x 1 x 1 k-mesh (automatic generation o
   0.00000000  0.00000000  0.00000000       1.000
 
 k-points in reciprocal lattice and weights: 1 x 1 x 1 k-mesh (automatic generation o
   0.00000000  0.00000000  0.00000000       1.000
 
 position of ions in fractional coordinates (direct lattice) 
   0.00000000  0.00000000  0.00000000
   0.00000000  0.16666999  0.16666999
   0.16666999  0.00000000  0.16666999
   0.16666999  0.16666999  0.00000000
   0.25000000  0.08333000  0.25000000
   0.08333000  0.08333000  0.08333000
   0.08333000  0.25000000  0.25000000
   0.25000000  0.25000000  0.08333000
   0.33333001  0.00000000  0.00000000
   0.33333001  0.16666999  0.16666999
   0.50000000  0.00000000  0.16666999
   0.50000000  0.16666999  0.00000000
   0.58332998  0.08333000  0.25000000
   0.41666999  0.08333000  0.08333000
   0.41666999  0.25000000  0.25000000
   0.58332998  0.25000000  0.08333000
   0.66667002  0.00000000  0.00000000
   0.66667002  0.16666999  0.16666999
   0.83332998  0.00000000  0.16666999
   0.83332998  0.16666999  0.00000000
   0.91667002  0.08333000  0.25000000
   0.75000000  0.08333000  0.08333000
   0.75000000  0.25000000  0.25000000
   0.91667002  0.25000000  0.08333000
   0.00000000  0.33333001  0.00000000
   0.00000000  0.50000000  0.16666999
   0.16666999  0.33333001  0.16666999
   0.16666999  0.50000000  0.00000000
   0.25000000  0.41666999  0.25000000
   0.08333000  0.41666999  0.08333000
   0.08333000  0.58332998  0.25000000
   0.25000000  0.58332998  0.08333000
   0.33333001  0.33333001  0.00000000
   0.33333001  0.50000000  0.16666999
   0.50000000  0.33333001  0.16666999
   0.50000000  0.50000000  0.00000000
   0.58332998  0.41666999  0.25000000
   0.41666999  0.41666999  0.08333000
   0.41666999  0.58332998  0.25000000
   0.58332998  0.58332998  0.08333000
   0.66667002  0.33333001  0.00000000
   0.66667002  0.50000000  0.16666999
   0.83332998  0.33333001  0.16666999
   0.83332998  0.50000000  0.00000000
   0.91667002  0.41666999  0.25000000
   0.75000000  0.41666999  0.08333000
   0.75000000  0.58332998  0.25000000
   0.91667002  0.58332998  0.08333000
   0.00000000  0.66667002  0.00000000
   0.00000000  0.83332998  0.16666999
   0.16666999  0.66667002  0.16666999
   0.16666999  0.83332998  0.00000000
   0.25000000  0.75000000  0.25000000
   0.08333000  0.75000000  0.08333000
   0.08333000  0.91667002  0.25000000
   0.25000000  0.91667002  0.08333000
   0.33333001  0.66667002  0.00000000
   0.33333001  0.83332998  0.16666999
   0.50000000  0.66667002  0.16666999
   0.50000000  0.83332998  0.00000000
   0.58332998  0.75000000  0.25000000
   0.41666999  0.75000000  0.08333000
   0.41666999  0.91667002  0.25000000
   0.58332998  0.91667002  0.08333000
   0.66667002  0.66667002  0.00000000
   0.66667002  0.83332998  0.16666999
   0.83332998  0.66667002  0.16666999
   0.83332998  0.83332998  0.00000000
   0.91667002  0.75000000  0.25000000
   0.75000000  0.75000000  0.08333000
   0.75000000  0.91667002  0.25000000
   0.91667002  0.91667002  0.08333000
   0.00000000  0.00000000  0.33333001
   0.00000000  0.16666999  0.50000000
   0.16666999  0.00000000  0.50000000
   0.16666999  0.16666999  0.33333001
   0.25000000  0.08333000  0.58332998
   0.08333000  0.08333000  0.41666999
   0.08333000  0.25000000  0.58332998
   0.25000000  0.25000000  0.41666999
   0.33333001  0.00000000  0.33333001
   0.33333001  0.16666999  0.50000000
   0.50000000  0.00000000  0.50000000
   0.50000000  0.16666999  0.33333001
   0.58332998  0.08333000  0.58332998
   0.41666999  0.08333000  0.41666999
   0.41666999  0.25000000  0.58332998
   0.58332998  0.25000000  0.41666999
   0.66667002  0.00000000  0.33333001
   0.66667002  0.16666999  0.50000000
   0.83332998  0.00000000  0.50000000
   0.83332998  0.16666999  0.33333001
   0.91667002  0.08333000  0.58332998
   0.75000000  0.08333000  0.41666999
   0.75000000  0.25000000  0.58332998
   0.91667002  0.25000000  0.41666999
   0.00000000  0.33333001  0.33333001
   0.00000000  0.50000000  0.50000000
   0.16666999  0.33333001  0.50000000
   0.16666999  0.50000000  0.33333001
   0.25000000  0.41666999  0.58332998
   0.08333000  0.41666999  0.41666999
   0.08333000  0.58332998  0.58332998
   0.25000000  0.58332998  0.41666999
   0.33333001  0.33333001  0.33333001
   0.33333001  0.50000000  0.50000000
   0.50000000  0.33333001  0.50000000
   0.50000000  0.50000000  0.33333001
   0.58332998  0.41666999  0.58332998
   0.41666999  0.41666999  0.41666999
   0.41666999  0.58332998  0.58332998
   0.58332998  0.58332998  0.41666999
   0.66667002  0.33333001  0.33333001
   0.66667002  0.50000000  0.50000000
   0.83332998  0.33333001  0.50000000
   0.83332998  0.50000000  0.33333001
   0.91667002  0.41666999  0.58332998
   0.75000000  0.41666999  0.41666999
   0.75000000  0.58332998  0.58332998
   0.91667002  0.58332998  0.41666999
   0.00000000  0.66667002  0.33333001
   0.00000000  0.83332998  0.50000000
   0.16666999  0.66667002  0.50000000
   0.16666999  0.83332998  0.33333001
   0.25000000  0.75000000  0.58332998
   0.08333000  0.75000000  0.41666999
   0.08333000  0.91667002  0.58332998
   0.25000000  0.91667002  0.41666999
   0.33333001  0.66667002  0.33333001
   0.33333001  0.83332998  0.50000000
   0.50000000  0.66667002  0.50000000
   0.50000000  0.83332998  0.33333001
   0.58332998  0.75000000  0.58332998
   0.41666999  0.75000000  0.41666999
   0.41666999  0.91667002  0.58332998
   0.58332998  0.91667002  0.41666999
   0.66667002  0.66667002  0.33333001
   0.66667002  0.83332998  0.50000000
   0.83332998  0.66667002  0.50000000
   0.83332998  0.83332998  0.33333001
   0.91667002  0.75000000  0.58332998
   0.75000000  0.75000000  0.41666999
   0.75000000  0.91667002  0.58332998
   0.91667002  0.91667002  0.41666999
   0.00000000  0.00000000  0.66667002
   0.00000000  0.16666999  0.83332998
   0.16666999  0.00000000  0.83332998
   0.16666999  0.16666999  0.66667002
   0.25000000  0.08333000  0.91667002
   0.08333000  0.08333000  0.75000000
   0.08333000  0.25000000  0.91667002
   0.25000000  0.25000000  0.75000000
   0.33333001  0.00000000  0.66667002
   0.33333001  0.16666999  0.83332998
   0.50000000  0.00000000  0.83332998
   0.50000000  0.16666999  0.66667002
   0.58332998  0.08333000  0.91667002
   0.41666999  0.08333000  0.75000000
   0.41666999  0.25000000  0.91667002
   0.58332998  0.25000000  0.75000000
   0.66667002  0.00000000  0.66667002
   0.66667002  0.16666999  0.83332998
   0.83332998  0.00000000  0.83332998
   0.83332998  0.16666999  0.66667002
   0.91667002  0.08333000  0.91667002
   0.75000000  0.08333000  0.75000000
   0.75000000  0.25000000  0.91667002
   0.91667002  0.25000000  0.75000000
   0.00000000  0.33333001  0.66667002
   0.00000000  0.50000000  0.83332998
   0.16666999  0.33333001  0.83332998
   0.16666999  0.50000000  0.66667002
   0.25000000  0.41666999  0.91667002
   0.08333000  0.41666999  0.75000000
   0.08333000  0.58332998  0.91667002
   0.25000000  0.58332998  0.75000000
   0.33333001  0.33333001  0.66667002
   0.33333001  0.50000000  0.83332998
   0.50000000  0.33333001  0.83332998
   0.50000000  0.50000000  0.66667002
   0.58332998  0.41666999  0.91667002
   0.41666999  0.41666999  0.75000000
   0.41666999  0.58332998  0.91667002
   0.58332998  0.58332998  0.75000000
   0.66667002  0.33333001  0.66667002
   0.66667002  0.50000000  0.83332998
   0.83332998  0.33333001  0.83332998
   0.83332998  0.50000000  0.66667002
   0.91667002  0.41666999  0.91667002
   0.75000000  0.41666999  0.75000000
   0.75000000  0.58332998  0.91667002
   0.91667002  0.58332998  0.75000000
   0.00000000  0.66667002  0.66667002
   0.00000000  0.83332998  0.83332998
   0.16666999  0.66667002  0.83332998
   0.16666999  0.83332998  0.66667002
   0.25000000  0.75000000  0.91667002
   0.08333000  0.75000000  0.75000000
   0.08333000  0.91667002  0.91667002
   0.25000000  0.91667002  0.75000000
   0.33333001  0.66667002  0.66667002
   0.33333001  0.83332998  0.83332998
   0.50000000  0.66667002  0.83332998
   0.50000000  0.83332998  0.66667002
   0.58332998  0.75000000  0.91667002
   0.41666999  0.75000000  0.75000000
   0.41666999  0.91667002  0.91667002
   0.58332998  0.91667002  0.75000000
   0.66667002  0.66667002  0.66667002
   0.66667002  0.83332998  0.83332998
   0.83332998  0.66667002  0.83332998
   0.83332998  0.83332998  0.66667002
   0.91667002  0.75000000  0.91667002
   0.75000000  0.75000000  0.75000000
   0.75000000  0.91667002  0.91667002
   0.91667002  0.91667002  0.75000000
 
 position of ions in cartesian coordinates  (Angst):
   0.00000000  0.00000000  0.00000000
   0.00000000  1.77253543  1.77253543
   1.77253543  0.00000000  1.77253543
   1.77253543  1.77253543  0.00000000
   2.65875006  0.88621455  2.65875006
   0.88621455  0.88621455  0.88621455
   0.88621455  2.65875006  2.65875006
   2.65875006  2.65875006  0.88621455
   3.54496468  0.00000000  0.00000000
   3.54496468  1.77253543  1.77253543
   5.31750011  0.00000000  1.77253543
   5.31750011  1.77253543  0.00000000
   6.20371443  0.88621455  2.65875006
   4.43128549  0.88621455  0.88621455
   4.43128549  2.65875006  2.65875006
   6.20371443  2.65875006  0.88621455
   7.09003586  0.00000000  0.00000000
   7.09003586  1.77253543  1.77253543
   8.86246449  0.00000000  1.77253543
   8.86246449  1.77253543  0.00000000
   9.74878592  0.88621455  2.65875006
   7.97625017  0.88621455  0.88621455
   7.97625017  2.65875006  2.65875006
   9.74878592  2.65875006  0.88621455
   0.00000000  3.54496468  0.00000000
   0.00000000  5.31750011  1.77253543
   1.77253543  3.54496468  1.77253543
   1.77253543  5.31750011  0.00000000
   2.65875006  4.43128549  2.65875006
   0.88621455  4.43128549  0.88621455
   0.88621455  6.20371443  2.65875006
   2.65875006  6.20371443  0.88621455
   3.54496468  3.54496468  0.00000000
   3.54496468  5.31750011  1.77253543
   5.31750011  3.54496468  1.77253543
   5.31750011  5.31750011  0.00000000
   6.20371443  4.43128549  2.65875006
   4.43128549  4.43128549  0.88621455
   4.43128549  6.20371443  2.65875006
   6.20371443  6.20371443  0.88621455
   7.09003586  3.54496468  0.00000000
   7.09003586  5.31750011  1.77253543
   8.86246449  3.54496468  1.77253543
   8.86246449  5.31750011  0.00000000
   9.74878592  4.43128549  2.65875006
   7.97625017  4.43128549  0.88621455
   7.97625017  6.20371443  2.65875006
   9.74878592  6.20371443  0.88621455
   0.00000000  7.09003586  0.00000000
   0.00000000  8.86246449  1.77253543
   1.77253543  7.09003586  1.77253543
   1.77253543  8.86246449  0.00000000
   2.65875006  7.97625017  2.65875006
   0.88621455  7.97625017  0.88621455
   0.88621455  9.74878592  2.65875006
   2.65875006  9.74878592  0.88621455
   3.54496468  7.09003586  0.00000000
   3.54496468  8.86246449  1.77253543
   5.31750011  7.09003586  1.77253543
   5.31750011  8.86246449  0.00000000
   6.20371443  7.97625017  2.65875006
   4.43128549  7.97625017  0.88621455
   4.43128549  9.74878592  2.65875006
   6.20371443  9.74878592  0.88621455
   7.09003586  7.09003586  0.00000000
   7.09003586  8.86246449  1.77253543
   8.86246449  7.09003586  1.77253543
   8.86246449  8.86246449  0.00000000
   9.74878592  7.97625017  2.65875006
   7.97625017  7.97625017  0.88621455
   7.97625017  9.74878592  2.65875006
   9.74878592  9.74878592  0.88621455
   0.00000000  0.00000000  3.54496468
   0.00000000  1.77253543  5.31750011
   1.77253543  0.00000000  5.31750011
   1.77253543  1.77253543  3.54496468
   2.65875006  0.88621455  6.20371443
   0.88621455  0.88621455  4.43128549
   0.88621455  2.65875006  6.20371443
   2.65875006  2.65875006  4.43128549
   3.54496468  0.00000000  3.54496468
   3.54496468  1.77253543  5.31750011
   5.31750011  0.00000000  5.31750011
   5.31750011  1.77253543  3.54496468
   6.20371443  0.88621455  6.20371443
   4.43128549  0.88621455  4.43128549
   4.43128549  2.65875006  6.20371443
   6.20371443  2.65875006  4.43128549
   7.09003586  0.00000000  3.54496468
   7.09003586  1.77253543  5.31750011
   8.86246449  0.00000000  5.31750011
   8.86246449  1.77253543  3.54496468
   9.74878592  0.88621455  6.20371443
   7.97625017  0.88621455  4.43128549
   7.97625017  2.65875006  6.20371443
   9.74878592  2.65875006  4.43128549
   0.00000000  3.54496468  3.54496468
   0.00000000  5.31750011  5.31750011
   1.77253543  3.54496468  5.31750011
   1.77253543  5.31750011  3.54496468
   2.65875006  4.43128549  6.20371443
   0.88621455  4.43128549  4.43128549
   0.88621455  6.20371443  6.20371443
   2.65875006  6.20371443  4.43128549
   3.54496468  3.54496468  3.54496468
   3.54496468  5.31750011  5.31750011
   5.31750011  3.54496468  5.31750011
   5.31750011  5.31750011  3.54496468
   6.20371443  4.43128549  6.20371443
   4.43128549  4.43128549  4.43128549
   4.43128549  6.20371443  6.20371443
   6.20371443  6.20371443  4.43128549
   7.09003586  3.54496468  3.54496468
   7.09003586  5.31750011  5.31750011
   8.86246449  3.54496468  5.31750011
   8.86246449  5.31750011  3.54496468
   9.74878592  4.43128549  6.20371443
   7.97625017  4.43128549  4.43128549
   7.97625017  6.20371443  6.20371443
   9.74878592  6.20371443  4.43128549
   0.00000000  7.09003586  3.54496468
   0.00000000  8.86246449  5.31750011
   1.77253543  7.09003586  5.31750011
   1.77253543  8.86246449  3.54496468
   2.65875006  7.97625017  6.20371443
   0.88621455  7.97625017  4.43128549
   0.88621455  9.74878592  6.20371443
   2.65875006  9.74878592  4.43128549
   3.54496468  7.09003586  3.54496468
   3.54496468  8.86246449  5.31750011
   5.31750011  7.09003586  5.31750011
   5.31750011  8.86246449  3.54496468
   6.20371443  7.97625017  6.20371443
   4.43128549  7.97625017  4.43128549
   4.43128549  9.74878592  6.20371443
   6.20371443  9.74878592  4.43128549
   7.09003586  7.09003586  3.54496468
   7.09003586  8.86246449  5.31750011
   8.86246449  7.09003586  5.31750011
   8.86246449  8.86246449  3.54496468
   9.74878592  7.97625017  6.20371443
   7.97625017  7.97625017  4.43128549
   7.97625017  9.74878592  6.20371443
   9.74878592  9.74878592  4.43128549
   0.00000000  0.00000000  7.09003586
   0.00000000  1.77253543  8.86246449
   1.77253543  0.00000000  8.86246449
   1.77253543  1.77253543  7.09003586
   2.65875006  0.88621455  9.74878592
   0.88621455  0.88621455  7.97625017
   0.88621455  2.65875006  9.74878592
   2.65875006  2.65875006  7.97625017
   3.54496468  0.00000000  7.09003586
   3.54496468  1.77253543  8.86246449
   5.31750011  0.00000000  8.86246449
   5.31750011  1.77253543  7.09003586
   6.20371443  0.88621455  9.74878592
   4.43128549  0.88621455  7.97625017
   4.43128549  2.65875006  9.74878592
   6.20371443  2.65875006  7.97625017
   7.09003586  0.00000000  7.09003586
   7.09003586  1.77253543  8.86246449
   8.86246449  0.00000000  8.86246449
   8.86246449  1.77253543  7.09003586
   9.74878592  0.88621455  9.74878592
   7.97625017  0.88621455  7.97625017
   7.97625017  2.65875006  9.74878592
   9.74878592  2.65875006  7.97625017
   0.00000000  3.54496468  7.09003586
   0.00000000  5.31750011  8.86246449
   1.77253543  3.54496468  8.86246449
   1.77253543  5.31750011  7.09003586
   2.65875006  4.43128549  9.74878592
   0.88621455  4.43128549  7.97625017
   0.88621455  6.20371443  9.74878592
   2.65875006  6.20371443  7.97625017
   3.54496468  3.54496468  7.09003586
   3.54496468  5.31750011  8.86246449
   5.31750011  3.54496468  8.86246449
   5.31750011  5.31750011  7.09003586
   6.20371443  4.43128549  9.74878592
   4.43128549  4.43128549  7.97625017
   4.43128549  6.20371443  9.74878592
   6.20371443  6.20371443  7.97625017
   7.09003586  3.54496468  7.09003586
   7.09003586  5.31750011  8.86246449
   8.86246449  3.54496468  8.86246449
   8.86246449  5.31750011  7.09003586
   9.74878592  4.43128549  9.74878592
   7.97625017  4.43128549  7.97625017
   7.97625017  6.20371443  9.74878592
   9.74878592  6.20371443  7.97625017
   0.00000000  7.09003586  7.09003586
   0.00000000  8.86246449  8.86246449
   1.77253543  7.09003586  8.86246449
   1.77253543  8.86246449  7.09003586
   2.65875006  7.97625017  9.74878592
   0.88621455  7.97625017  7.97625017
   0.88621455  9.74878592  9.74878592
   2.65875006  9.74878592  7.97625017
   3.54496468  7.09003586  7.09003586
   3.54496468  8.86246449  8.86246449
   5.31750011  7.09003586  8.86246449
   5.31750011  8.86246449  7.09003586
   6.20371443  7.97625017  9.74878592
   4.43128549  7.97625017  7.97625017
   4.43128549  9.74878592  9.74878592
   6.20371443  9.74878592  7.97625017
   7.09003586  7.09003586  7.09003586
   7.09003586  8.86246449  8.86246449
   8.86246449  7.09003586  8.86246449
   8.86246449  8.86246449  7.09003586
   9.74878592  7.97625017  9.74878592
   7.97625017  7.97625017  7.97625017
   7.97625017  9.74878592  9.74878592
   9.74878592  9.74878592  7.97625017
 


--------------------------------------------------------------------------------------------------------


 use parallel FFT for orbitals z direction half grid
 k-point   1 :   0.0000 0.0000 0.0000  plane waves:    9775

 maximum and minimum number of plane-waves per node :      1225     1219

 maximum number of plane-waves:      9775
 maximum index in each direction: 
   IXMAX=   16   IYMAX=   16   IZMAX=   16
   IXMIN=  -16   IYMIN=  -16   IZMIN=    0


 parallel 3D FFT for wavefunctions:
    minimum data exchange during FFTs selected (reduces bandwidth)
 parallel 3D FFT for charge:
    minimum data exchange during FFTs selected (reduces bandwidth)


 FFT grid for exact exchange (Hartree Fock) 
  NGX = 54; NGY = 54; NGZ = 54

 use parallel FFT for orbitals z direction half grid
 
 Radii for the augmentation spheres in the non-local exchange
 for species   1 augmentation radius   0.874 (default was   0.699)
       energy cutoff for augmentation   1480.0

 real space projection operators:
  total allocation   :       5505.47 KBytes
  max/ min on nodes  :        742.92        620.16

 Maximum index for augmentation-charges in exchange           61
  SETUP_FOCK is finished

 total amount of memory used by VASP MPI-rank0   105888. kBytes
=======================================================================

   base      :      30000. kBytes
   nonl-proj :       4308. kBytes
   fftplans  :      13222. kBytes
   grid      :      29669. kBytes
   one-center:         82. kBytes
   HF        :          4. kBytes
   nonlr-proj:        856. kBytes
   wavefun   :      27747. kBytes
 
     INWAV:  cpu time    0.3877: real time    0.4436
 Broyden mixing: mesh for mixing (old mesh)
   NGX = 33   NGY = 33   NGZ = 33
  (NGX  =200   NGY  =200   NGZ  =200)
  gives a total of  35937 points

 charge density for first step will be calculated from the start-wavefunctions


--------------------------------------------------------------------------------------------------------


 Maximum index for augmentation-charges          887 (set IRDMAX)


--------------------------------------------------------------------------------------------------------


 initial charge from wavefunction
 First call to EWALD:  gamma=   0.167
 Maximum number of real-space cells 3x 3x 3
 Maximum number of reciprocal cells 3x 3x 3

    FEWALD:  cpu time    0.0086: real time    0.0091


--------------------------------------- Iteration      1(   1)  ---------------------------------------


    POTLOK:  cpu time    0.9739: real time    0.9762
    SETDIJ:  cpu time    0.1526: real time    0.1530
    TRIAL :  cpu time  153.4753: real time  153.8582
    CORREC:  cpu time  152.4557: real time  152.8347
    CHARGE:  cpu time    0.1533: real time    0.1542
    --------------------------------------------
      LOOP:  cpu time  307.2275: real time  307.9935

 eigenvalue-minimisations  :     0
 total energy-change (2. order) :-0.2280208E+04  (-0.7593955E-06)
 number of electron     864.0000001 magnetization      -0.0000000
 augmentation part       20.2562323 magnetization      -0.0000003

 Free energy of the ion-electron system (eV)
  ---------------------------------------------------
  alpha Z        PSCENC =      3186.28924586
  Ewald energy   TEWEN  =    -37810.67409911
  -Hartree energ DENC   =     -2790.88921847
  -exchange      EXHF   =      1998.28567765
  -V(xc)+E(xc)   XCENC  =      2351.27179885
  PAW double counting   =     96605.55703960   -96697.25790710
  entropy T*S    EENTRO =        -0.00000000
  eigenvalues    EBANDS =      -519.36390132
  atomic energy  EATOM  =     31396.57351286
  ---------------------------------------------------
  free energy    TOTEN  =     -2280.20785118 eV

  energy without entropy =    -2280.20785118  energy(sigma->0) =    -2280.20785118
  exchange ACFDT corr.  =         0.00000000  see jH, gK, PRB 81, 115126


--------------------------------------------------------------------------------------------------------




--------------------------------------- Iteration      1(   2)  ---------------------------------------


    POTLOK:  cpu time    0.9731: real time    0.9761
    SETDIJ:  cpu time    0.1459: real time    0.1462
    TRIAL :  cpu time  152.4549: real time  152.8303
    CORREC:  cpu time  150.8002: real time  151.1686
    EDDIAG:  cpu time  151.5465: real time  152.0083
    CHARGE:  cpu time    0.1528: real time    0.1537
    --------------------------------------------
      LOOP:  cpu time  456.0747: real time  457.2847

 eigenvalue-minimisations  :     0
 total energy-change (2. order) :-0.6884220E-06  (-0.7738156E-07)
 number of electron     864.0000001 magnetization      -0.0000000
 augmentation part       20.2562304 magnetization      -0.0000002

 Free energy of the ion-electron system (eV)
  ---------------------------------------------------
  alpha Z        PSCENC =      3186.28924586
  Ewald energy   TEWEN  =    -37810.67409911
  -Hartree energ DENC   =     -2790.89816308
  -exchange      EXHF   =      1998.28627294
  -V(xc)+E(xc)   XCENC  =      2351.27236304
  PAW double counting   =     96603.18409753   -96694.88539605
  entropy T*S    EENTRO =        -0.00000000
  eigenvalues    EBANDS =      -519.35567384
  atomic energy  EATOM  =     31396.57351286
  ---------------------------------------------------
  free energy    TOTEN  =     -2280.20785187 eV

  energy without entropy =    -2280.20785187  energy(sigma->0) =    -2280.20785187
  exchange ACFDT corr.  =         0.00000000  see jH, gK, PRB 81, 115126


--------------------------------------------------------------------------------------------------------


  average scaling for gradient   1.0083


 average (electrostatic) potential at core
  the test charge radii are     0.6991
  (the norm of the test charge is              1.0000)
       1 -41.4080       2 -41.4079       3 -41.4079       4 -41.4079       5 -41.4079
       6 -41.4078       7 -41.4079       8 -41.4079       9 -41.4079      10 -41.4078
      11 -41.4079      12 -41.4079      13 -41.4079      14 -41.4078      15 -41.4079
      16 -41.4079      17 -41.4079      18 -41.4078      19 -41.4079      20 -41.4079
      21 -41.4079      22 -41.4079      23 -41.4080      24 -41.4079      25 -41.4079
      26 -41.4079      27 -41.4078      28 -41.4079      29 -41.4080      30 -41.4078
      31 -41.4079      32 -41.4079      33 -41.4079      34 -41.4079      35 -41.4079
      36 -41.4080      37 -41.4079      38 -41.4078      39 -41.4079      40 -41.4078
      41 -41.4079      42 -41.4079      43 -41.4078      44 -41.4079      45 -41.4079
      46 -41.4079      47 -41.4079      48 -41.4078      49 -41.4079      50 -41.4079
      51 -41.4078      52 -41.4079      53 -41.4080      54 -41.4079      55 -41.4079
      56 -41.4079      57 -41.4079      58 -41.4078      59 -41.4079      60 -41.4079
      61 -41.4079      62 -41.4079      63 -41.4079      64 -41.4078      65 -41.4079
      66 -41.4078      67 -41.4078      68 -41.4079      69 -41.4079      70 -41.4079
      71 -41.4079      72 -41.4078      73 -41.4079      74 -41.4079      75 -41.4079
      76 -41.4078      77 -41.4079      78 -41.4078      79 -41.4079      80 -41.4079
      81 -41.4079      82 -41.4079      83 -41.4080      84 -41.4079      85 -41.4078
      86 -41.4078      87 -41.4079      88 -41.4079      89 -41.4079      90 -41.4079
      91 -41.4079      92 -41.4078      93 -41.4078      94 -41.4079      95 -41.4079
      96 -41.4079      97 -41.4079      98 -41.4080      99 -41.4079     100 -41.4079
     101 -41.4079     102 -41.4078     103 -41.4078     104 -41.4079     105 -41.4078
     106 -41.4080     107 -41.4080     108 -41.4080     109 -41.4078     110 -41.4079
     111 -41.4078     112 -41.4078     113 -41.4078     114 -41.4079     115 -41.4079
     116 -41.4079     117 -41.4078     118 -41.4079     119 -41.4079     120 -41.4078
     121 -41.4079     122 -41.4079     123 -41.4079     124 -41.4078     125 -41.4079
     126 -41.4079     127 -41.4078     128 -41.4079     129 -41.4078     130 -41.4079
     131 -41.4079     132 -41.4079     133 -41.4079     134 -41.4079     135 -41.4078
     136 -41.4078     137 -41.4078     138 -41.4079     139 -41.4079     140 -41.4078
     141 -41.4079     142 -41.4079     143 -41.4079     144 -41.4078     145 -41.4079
     146 -41.4079     147 -41.4079     148 -41.4078     149 -41.4079     150 -41.4079
     151 -41.4079     152 -41.4080     153 -41.4079     154 -41.4078     155 -41.4079
     156 -41.4079     157 -41.4078     158 -41.4079     159 -41.4079     160 -41.4079
     161 -41.4079     162 -41.4078     163 -41.4079     164 -41.4078     165 -41.4078
     166 -41.4079     167 -41.4080     168 -41.4079     169 -41.4079     170 -41.4079
     171 -41.4078     172 -41.4079     173 -41.4079     174 -41.4079     175 -41.4078
     176 -41.4079     177 -41.4078     178 -41.4079     179 -41.4079     180 -41.4079
     181 -41.4078     182 -41.4079     183 -41.4078     184 -41.4079     185 -41.4078
     186 -41.4079     187 -41.4078     188 -41.4079     189 -41.4078     190 -41.4079
     191 -41.4079     192 -41.4079     193 -41.4079     194 -41.4079     195 -41.4078
     196 -41.4078     197 -41.4079     198 -41.4079     199 -41.4078     200 -41.4079
     201 -41.4078     202 -41.4078     203 -41.4079     204 -41.4079     205 -41.4079
     206 -41.4079     207 -41.4078     208 -41.4079     209 -41.4078     210 -41.4078
     211 -41.4078     212 -41.4078     213 -41.4079     214 -41.4080     215 -41.4079
     216 -41.4079
 
 
 
 E-fermi :   9.4222     XC(G=0): -10.8797     alpha+bet :-17.9974

 Fermi energy:         9.4222117431

 spin component 1

 k-point     1 :       0.0000    0.0000    0.0000
  band No.  band energies     occupation 
      1     -14.4416      1.00000
      2     -13.3219      1.00000
      3     -13.3219      1.00000
      4     -13.3219      1.00000
      5     -13.3219      1.00000
      6     -13.3219      1.00000
      7     -13.3219      1.00000
      8     -12.2164      1.00000
      9     -12.2164      1.00000
     10     -12.2164      1.00000
     11     -12.2164      1.00000
     12     -12.2164      1.00000
     13     -12.2164      1.00000
     14     -12.2164      1.00000
     15     -12.2164      1.00000
     16     -12.2164      1.00000
     17     -12.2164      1.00000
     18     -12.2164      1.00000
     19     -12.2164      1.00000
     20     -11.1342      1.00000
     21     -11.1342      1.00000
     22     -11.1342      1.00000
     23     -11.1342      1.00000
     24     -11.1342      1.00000
     25     -11.1342      1.00000
     26     -11.1342      1.00000
     27     -11.1342      1.00000
     28     -10.0288      1.00000
     29     -10.0288      1.00000
     30     -10.0288      1.00000
     31     -10.0282      1.00000
     32     -10.0282      1.00000
     33     -10.0282      1.00000
     34      -8.9994      1.00000
     35      -8.9994      1.00000
     36      -8.9994      1.00000
     37      -8.9994      1.00000
     38      -8.9994      1.00000
     39      -8.9994      1.00000
     40      -8.9994      1.00000
     41      -8.9994      1.00000
     42      -8.9994      1.00000
     43      -8.9994      1.00000
     44      -8.9994      1.00000
     45      -8.9994      1.00000
     46      -8.9987      1.00000
     47      -8.9987      1.00000
     48      -8.9987      1.00000
     49      -8.9987      1.00000
     50      -8.9987      1.00000
     51      -8.9987      1.00000
     52      -8.9987      1.00000
     53      -8.9987      1.00000
     54      -8.9987      1.00000
     55      -8.9987      1.00000
     56      -8.9987      1.00000
     57      -8.9987      1.00000
     58      -8.1285      1.00000
     59      -8.1285      1.00000
     60      -8.1285      1.00000
     61      -8.1285      1.00000
     62      -8.1285      1.00000
     63      -8.1285      1.00000
     64      -8.1285      1.00000
     65      -8.1285      1.00000
[...]
      0.88621      0.88621      0.88621         0.002962      0.002953      0.002958
      0.88621      2.65875      2.65875         0.002932     -0.000009     -0.000006
      2.65875      2.65875      0.88621        -0.000000     -0.000006      0.002926
      3.54496      0.00000      0.00000         0.002924      0.000006      0.000007
      3.54496      1.77254      1.77254         0.002945     -0.002959     -0.002952
      5.31750      0.00000      1.77254        -0.000015     -0.000002     -0.002926
      5.31750      1.77254      0.00000        -0.000014     -0.002930      0.000004
      6.20371      0.88621      2.65875         0.002967      0.002949      0.000001
      4.43129      0.88621      0.88621        -0.002962      0.002949      0.002959
      4.43129      2.65875      2.65875        -0.002931     -0.000009     -0.000005
      6.20371      2.65875      0.88621         0.002965     -0.000005      0.002952
      7.09004      0.00000      0.00000        -0.002955     -0.000002     -0.000002
      7.09004      1.77254      1.77254        -0.002979     -0.002956     -0.002944
      8.86246      0.00000      1.77254         0.002978      0.000001     -0.002943
      8.86246      1.77254      0.00000         0.002979     -0.002951      0.000001
      9.74879      0.88621      2.65875        -0.002973      0.002946      0.000006
      7.97625      0.88621      0.88621         0.000000      0.002949      0.002955
      7.97625      2.65875      2.65875         0.000004     -0.000003      0.000008
      9.74879      2.65875      0.88621        -0.002965     -0.000001      0.002955
      0.00000      3.54496      0.00000         0.000010      0.002927     -0.000000
      0.00000      5.31750      1.77254         0.000002     -0.000001     -0.002932
      1.77254      3.54496      1.77254        -0.002947      0.002944     -0.002957
      1.77254      5.31750      0.00000        -0.002929     -0.000005     -0.000004
      2.65875      4.43129      2.65875         0.000002     -0.002929     -0.000008
      0.88621      4.43129      0.88621         0.002962     -0.002949      0.002952
      0.88621      6.20371      2.65875         0.002956      0.002973     -0.000010
      2.65875      6.20371      0.88621        -0.000001      0.002975      0.002950
      3.54496      3.54496      0.00000         0.002941      0.002941     -0.000002
      3.54496      5.31750      1.77254         0.002944     -0.000007     -0.002955
      5.31750      3.54496      1.77254        -0.000010      0.002946     -0.002948
      5.31750      5.31750      0.00000        -0.000006      0.000002      0.000002
      6.20371      4.43129      2.65875         0.002972     -0.002945     -0.000001
      4.43129      4.43129      0.88621        -0.002957     -0.002951      0.002953
      4.43129      6.20371      2.65875        -0.002946      0.002976     -0.000005
      6.20371      6.20371      0.88621         0.002972      0.002981      0.002948
      7.09004      3.54496      0.00000        -0.002977      0.002953     -0.000002
      7.09004      5.31750      1.77254        -0.002973      0.000004     -0.002949
      8.86246      3.54496      1.77254         0.002979      0.002950     -0.002946
      8.86246      5.31750      0.00000         0.002952      0.000006     -0.000001
      9.74879      4.43129      2.65875        -0.002974     -0.002949      0.000001
      7.97625      4.43129      0.88621         0.000001     -0.002940      0.002956
      7.97625      6.20371      2.65875         0.000002      0.002951      0.000005
      9.74879      6.20371      0.88621        -0.002974      0.002976      0.002950
      0.00000      7.09004      0.00000         0.000005     -0.002950      0.000000
      0.00000      8.86246      1.77254         0.000005      0.002975     -0.002943
      1.77254      7.09004      1.77254        -0.002950     -0.002975     -0.002959
      1.77254      8.86246      0.00000        -0.002950      0.002975     -0.000001
      2.65875      7.97625      2.65875         0.000002      0.000007     -0.000009
      0.88621      7.97625      0.88621         0.002955     -0.000001      0.002950
      0.88621      9.74879      2.65875         0.002954     -0.002969      0.000004
      2.65875      9.74879      0.88621         0.000002     -0.002966      0.002956
      3.54496      7.09004      0.00000         0.002950     -0.002969      0.000002
      3.54496      8.86246      1.77254         0.002952      0.002981     -0.002954
      5.31750      7.09004      1.77254        -0.000004     -0.002964     -0.002953
      5.31750      8.86246      0.00000        -0.000006      0.002947      0.000003
      6.20371      7.97625      2.65875         0.002943      0.000005     -0.000003
      4.43129      7.97625      0.88621        -0.002946      0.000002      0.002948
      4.43129      9.74879      2.65875        -0.002952     -0.002972     -0.000001
      6.20371      9.74879      0.88621         0.002968     -0.002977      0.002956
      7.09004      7.09004      0.00000        -0.002973     -0.002965      0.000001
      7.09004      8.86246      1.77254        -0.002978      0.002977     -0.002949
      8.86246      7.09004      1.77254         0.002978     -0.002972     -0.002948
      8.86246      8.86246      0.00000         0.002970      0.002967     -0.000002
      9.74879      7.97625      2.65875        -0.002950     -0.000001      0.000000
      7.97625      7.97625      0.88621         0.000001     -0.000007      0.002923
      7.97625      9.74879      2.65875         0.000000     -0.002950      0.000008
      9.74879      9.74879      0.88621        -0.002970     -0.002973      0.002958
      0.00000      0.00000      3.54496         0.000002     -0.000000      0.002932
      0.00000      1.77254      5.31750         0.000003     -0.002936     -0.000004
      1.77254      0.00000      5.31750        -0.002932      0.000001     -0.000005
      1.77254      1.77254      3.54496        -0.002949     -0.002963      0.002946
      2.65875      0.88621      6.20371        -0.000002      0.002955      0.002976
      0.88621      0.88621      4.43129         0.002952      0.002950     -0.002952
      0.88621      2.65875      6.20371         0.002952     -0.000008      0.002977
      2.65875      2.65875      4.43129         0.000001     -0.000011     -0.002927
      3.54496      0.00000      3.54496         0.002941      0.000002      0.002939
      3.54496      1.77254      5.31750         0.002950     -0.002950     -0.000003
      5.31750      0.00000      5.31750        -0.000002     -0.000004     -0.000007
      5.31750      1.77254      3.54496        -0.000009     -0.002957      0.002943
      6.20371      0.88621      6.20371         0.002977      0.002952      0.002972
      4.43129      0.88621      4.43129        -0.002954      0.002951     -0.002955
      4.43129      2.65875      6.20371        -0.002953     -0.000006      0.002975
      6.20371      2.65875      4.43129         0.002973     -0.000005     -0.002945
      7.09004      0.00000      3.54496        -0.002972     -0.000003      0.002951
      7.09004      1.77254      5.31750        -0.002970     -0.002955     -0.000005
      8.86246      0.00000      5.31750         0.002956     -0.000001     -0.000005
      8.86246      1.77254      3.54496         0.002979     -0.002959      0.002959
      9.74879      0.88621      6.20371        -0.002974      0.002949      0.002972
      7.97625      0.88621      4.43129         0.000009      0.002948     -0.002943
      7.97625      2.65875      6.20371         0.000006     -0.000006      0.002946
      9.74879      2.65875      4.43129        -0.002975     -0.000012     -0.002947
      0.00000      3.54496      3.54496        -0.000002      0.002943      0.002946
      0.00000      5.31750      5.31750        -0.000004     -0.000005      0.000001
      1.77254      3.54496      5.31750        -0.002954      0.002939      0.000005
      1.77254      5.31750      3.54496        -0.002951     -0.000007      0.002938
      2.65875      4.43129      6.20371         0.000001     -0.002953      0.002984
      0.88621      4.43129      4.43129         0.002952     -0.002957     -0.002949
      0.88621      6.20371      6.20371         0.002951      0.002972      0.002982
      2.65875      6.20371      4.43129         0.000003      0.002976     -0.002952
      3.54496      3.54496      3.54496         0.002949      0.002943      0.002941
      3.54496      5.31750      5.31750         0.002933     -0.000005      0.000001
      5.31750      3.54496      5.31750        -0.000004      0.002922     -0.000003
      5.31750      5.31750      3.54496        -0.000000      0.000000      0.002927
      6.20371      4.43129      6.20371         0.002977     -0.002946      0.002973
      4.43129      4.43129      4.43129        -0.002949     -0.002953     -0.002952
      4.43129      6.20371      6.20371        -0.002946      0.002979      0.002975
      6.20371      6.20371      4.43129         0.002978      0.002985     -0.002945
      7.09004      3.54496      3.54496        -0.002968      0.002949      0.002953
      7.09004      5.31750      5.31750        -0.002950     -0.000001     -0.000001
      8.86246      3.54496      5.31750         0.002973      0.002941     -0.000001
      8.86246      5.31750      3.54496         0.002967     -0.000003      0.002949
      9.74879      4.43129      6.20371        -0.002974     -0.002950      0.002976
      7.97625      4.43129      4.43129         0.000003     -0.002949     -0.002950
      7.97625      6.20371      6.20371        -0.000002      0.002979      0.002974
      9.74879      6.20371      4.43129        -0.002982      0.002979     -0.002952
      0.00000      7.09004      3.54496        -0.000005     -0.002967      0.002948
      0.00000      8.86246      5.31750        -0.000004      0.002961     -0.000005
      1.77254      7.09004      5.31750        -0.002949     -0.002966     -0.000002
      1.77254      8.86246      3.54496        -0.002951      0.002985      0.002949
      2.65875      7.97625      6.20371         0.000003      0.000003      0.002948
      0.88621      7.97625      4.43129         0.002947      0.000011     -0.002948
      0.88621      9.74879      6.20371         0.002950     -0.002969      0.002970
      2.65875      9.74879      4.43129        -0.000002     -0.002967     -0.002955
      3.54496      7.09004      3.54496         0.002954     -0.002969      0.002949
      3.54496      8.86246      5.31750         0.002953      0.002978     -0.000005
      5.31750      7.09004      5.31750         0.000008     -0.002939     -0.000003
      5.31750      8.86246      3.54496        -0.000005      0.002977      0.002946
      6.20371      7.97625      6.20371         0.002977     -0.000000      0.002974
      4.43129      7.97625      4.43129        -0.002945      0.000006     -0.002950
      4.43129      9.74879      6.20371        -0.002951     -0.002975      0.002970
      6.20371      9.74879      4.43129         0.002975     -0.002975     -0.002950
      7.09004      7.09004      3.54496        -0.002973     -0.002971      0.002958
      7.09004      8.86246      5.31750        -0.002970      0.002974     -0.000002
      8.86246      7.09004      5.31750         0.002966     -0.002965     -0.000005
      8.86246      8.86246      3.54496         0.002973      0.002979      0.002957
      9.74879      7.97625      6.20371        -0.002977      0.000009      0.002973
      7.97625      7.97625      4.43129         0.000001      0.000001     -0.002923
      7.97625      9.74879      6.20371         0.000004     -0.002973      0.002968
      9.74879      9.74879      4.43129        -0.002978     -0.002968     -0.002949
      0.00000      0.00000      7.09004         0.000003      0.000003     -0.002951
      0.00000      1.77254      8.86246         0.000009     -0.002950      0.002967
      1.77254      0.00000      8.86246        -0.002948      0.000006      0.002971
      1.77254      1.77254      7.09004        -0.002955     -0.002952     -0.002970
      2.65875      0.88621      9.74879         0.000006      0.002959     -0.002972
      0.88621      0.88621      7.97625         0.002953      0.002957     -0.000006
      0.88621      2.65875      9.74879         0.002964     -0.000001     -0.002976
      2.65875      2.65875      7.97625         0.000001     -0.000001      0.000007
      3.54496      0.00000      7.09004         0.002948      0.000005     -0.002972
      3.54496      1.77254      8.86246         0.002940     -0.002947      0.002975
      5.31750      0.00000      8.86246        -0.000010     -0.000002      0.002950
      5.31750      1.77254      7.09004        -0.000008     -0.002950     -0.002974
      6.20371      0.88621      9.74879         0.002968      0.002950     -0.002974
      4.43129      0.88621      7.97625        -0.002956      0.002951     -0.000000
      4.43129      2.65875      9.74879        -0.002961     -0.000000     -0.002973
      6.20371      2.65875      7.97625         0.002943     -0.000001     -0.000002
      7.09004      0.00000      7.09004        -0.002967     -0.000005     -0.002979
      7.09004      1.77254      8.86246        -0.002981     -0.002950      0.002972
      8.86246      0.00000      8.86246         0.002975     -0.000007      0.002964
      8.86246      1.77254      7.09004         0.002982     -0.002959     -0.002981
      9.74879      0.88621      9.74879        -0.002967      0.002955     -0.002978
      7.97625      0.88621      7.97625         0.000006      0.002925     -0.000009
      7.97625      2.65875      9.74879         0.000005     -0.000000     -0.002953
      9.74879      2.65875      7.97625        -0.002940     -0.000002     -0.000003
      0.00000      3.54496      7.09004         0.000003      0.002943     -0.002970
      0.00000      5.31750      8.86246         0.000006     -0.000003      0.002952
      1.77254      3.54496      8.86246        -0.002945      0.002947      0.002975
      1.77254      5.31750      7.09004        -0.002950     -0.000009     -0.002966
      2.65875      4.43129      9.74879        -0.000005     -0.002956     -0.002976
      0.88621      4.43129      7.97625         0.002957     -0.002955      0.000004
      0.88621      6.20371      9.74879         0.002956      0.002977     -0.002974
      2.65875      6.20371      7.97625         0.000001      0.002940      0.000005
      3.54496      3.54496      7.09004         0.002943      0.002943     -0.002969
      3.54496      5.31750      8.86246         0.002944     -0.000009      0.002976
      5.31750      3.54496      8.86246        -0.000013      0.002948      0.002975
      5.31750      5.31750      7.09004        -0.000001     -0.000001     -0.002948
      6.20371      4.43129      9.74879         0.002969     -0.002950     -0.002975
      4.43129      4.43129      7.97625        -0.002958     -0.002954      0.000002
      4.43129      6.20371      9.74879        -0.002952      0.002981     -0.002973
      6.20371      6.20371      7.97625         0.002977      0.002978     -0.000001
      7.09004      3.54496      7.09004        -0.002975      0.002947     -0.002972
      7.09004      5.31750      8.86246        -0.002972      0.000005      0.002973
      8.86246      3.54496      8.86246         0.002981      0.002950      0.002974
      8.86246      5.31750      7.09004         0.002970     -0.000002     -0.002975
      9.74879      4.43129      9.74879        -0.002970     -0.002945     -0.002975
      7.97625      4.43129      7.97625         0.000002     -0.002917     -0.000001
      7.97625      6.20371      9.74879         0.000002      0.002982     -0.002972
      9.74879      6.20371      7.97625        -0.002972      0.002980     -0.000000
      0.00000      7.09004      7.09004        -0.000004     -0.002965     -0.002969
      0.00000      8.86246      8.86246         0.000003      0.002970      0.002972
      1.77254      7.09004      8.86246        -0.002955     -0.002977      0.002981
      1.77254      8.86246      7.09004        -0.002957      0.002984     -0.002971
      2.65875      7.97625      9.74879        -0.000000      0.000000     -0.002946
      0.88621      7.97625      7.97625         0.002925      0.000008      0.000004
      0.88621      9.74879      9.74879         0.002956     -0.002977     -0.002975
      2.65875      9.74879      7.97625        -0.000004     -0.002943     -0.000001
      3.54496      7.09004      7.09004         0.002949     -0.002974     -0.002973
      3.54496      8.86246      8.86246         0.002952      0.002975      0.002980
      5.31750      7.09004      8.86246         0.000000     -0.002965      0.002979
      5.31750      8.86246      7.09004        -0.000002      0.002971     -0.002973
      6.20371      7.97625      9.74879         0.002972      0.000000     -0.002968
      4.43129      7.97625      7.97625        -0.002921      0.000002      0.000003
      4.43129      9.74879      9.74879        -0.002950     -0.002975     -0.002972
      6.20371      9.74879      7.97625         0.002972     -0.002978     -0.000003
      7.09004      7.09004      7.09004        -0.002977     -0.002970     -0.002976
      7.09004      8.86246      8.86246        -0.002974      0.002970      0.002978
      8.86246      7.09004      8.86246         0.002971     -0.002969      0.002977
      8.86246      8.86246      7.09004         0.002975      0.002979     -0.002975
      9.74879      7.97625      9.74879        -0.002977     -0.000002     -0.002973
      7.97625      7.97625      7.97625        -0.000001      0.000003      0.000003
      7.97625      9.74879      9.74879        -0.000002     -0.002983     -0.002980
      9.74879      9.74879      7.97625        -0.002971     -0.002973     -0.000005
 -----------------------------------------------------------------------------------
    total drift:                                0.000007      0.000019     -0.000043


--------------------------------------------------------------------------------------------------------



  FREE ENERGIE OF THE ION-ELECTRON SYSTEM (eV)
  ---------------------------------------------------
  free  energy   TOTEN  =     -2280.20785187 eV

  energy  without entropy=    -2280.20785187  energy(sigma->0) =    -2280.20785187
 


--------------------------------------------------------------------------------------------------------


    POTLOK:  cpu time    1.1116: real time    1.1150


--------------------------------------------------------------------------------------------------------


 writing wavefunctions
     LOOP+:  cpu time 1021.2331: real time 1024.7211
    4ORBIT:  cpu time    0.0000: real time    0.0000

 total amount of memory used by VASP MPI-rank0   150420. kBytes
=======================================================================

   base      :      30000. kBytes
   nonl-proj :       4308. kBytes
   fftplans  :      13222. kBytes
   grid      :      29669. kBytes
   one-center:         82. kBytes
   HF        :          4. kBytes
   nonlr-proj:        856. kBytes
   wavefun   :      27747. kBytes
   fock_wrk  :      44532. kBytes
 
  
  
 General timing and accounting informations for this job:
 ========================================================
  
                  Total CPU time used (sec):     1076.330
                            User time (sec):     1039.520
                          System time (sec):       36.810
                         Elapsed time (sec):     1082.728
  
                   Maximum memory used (kb):      893840.
                   Average memory used (kb):          N/A
  
                          Minor page faults:      1279291
                          Major page faults:            0
                 Voluntary context switches:         7111
